 Gaussian 09, Revision E.01,
 Gaussian 09:  ES64L-G09RevE.01 30-Nov-2015

 -------------------------------------------------------------------
 #P b3lyp/6-31g* # SCF=(xqc) # Freq=() # IOp(7/33=1) # int=ultrafine
 -------------------------------------------------------------------

 --------
 comment:
 --------
 Symbolic Z-matrix:
 Charge =  0 Multiplicity = 1

                         Standard orientation:
 ---------------------------------------------------------------------
 Center     Atomic      Atomic             Coordinates (Angstroms)
 Number     Number       Type             X           Y           Z
 ---------------------------------------------------------------------
      1          8           0        0.000000    0.000000    0.119788
      2          1           0        0.000000    0.761186   -0.479154
      3          1           0       -0.000000   -0.761186   -0.479154
 ---------------------------------------------------------------------

 SCF Done:  E(RB3LYP) =  -76.4089538595     A.U. after    9 cycles

 The electronic state is 1-A1.
 Alpha  occ. eigenvalues --  -19.13817  -0.99799  -0.51711  -0.37232  -0.29122
 Alpha virt. eigenvalues --    0.06263   0.14816   0.77235   0.86120   0.89077
 Alpha virt. eigenvalues --    0.89515   1.06578   1.19364   1.72892   1.74638
 Alpha virt. eigenvalues --    1.77973   2.28074   2.57728   3.55189

 Mulliken charges:
               1
     1  O   -0.774273
     2  H    0.387137
     3  H    0.387137
 Sum of Mulliken charges =   0.00000

 Dipole moment (field-independent basis, Debye):
    X=             -0.0000    Y=             -0.0000    Z=             -2.0960  Tot=              2.0960
 Quadrupole moment (field-independent basis, Debye-Ang):
   XX=             -7.2036   YY=             -4.2889   ZZ=             -5.9885
   XY=              0.0000   XZ=              0.0000   YZ=             -0.0000

  Exact polarizability:   2.830   0.000   7.390   0.000   0.000   5.425
 Approx polarizability:   3.082   0.000   8.965   0.000   0.000   6.757

                      1                      2                      3
                     A1                     A1                     B2
 Frequencies --   1713.2493              3729.4441              3851.0598
 Red. masses --      1.0825                 1.0454                 1.0810
 Frc consts  --      1.8720                 8.5665                 9.4454
 IR Inten    --     75.7386                 1.6958                19.3235

 - Thermochemistry -
 -------------------
 Temperature   298.150 Kelvin.  Pressure   1.00000 Atm.
 Atom     1 has atomic number  8 and mass  15.99491

 Molecular mass:    18.01056 amu.
 Principal axes and moments of inertia in atomic units:
                           1         2         3
     Eigenvalues --     2.29317   4.17056   6.46373
           X            0.00000   0.00000   1.00000
           Y            1.00000   0.00000   0.00000
           Z            0.00000   1.00000   0.00000
 This molecule is an asymmetric top.
 Rotational symmetry number  2.
 Rotational temperatures (Kelvin)     37.77028    20.76791    13.39996
 Rotational constants (GHZ):         787.00578   432.73346   279.21028
 Zero-point vibrational energy      55589.0 (Joules/Mol)
                                   13.28609 (Kcal/Mol)
 Vibrational temperatures:   2464.98  5365.83  5540.81
          (Kelvin)

 Zero-point correction=                           0.021173 (Hartree/Particle)
 Thermal correction to Energy=                    0.024007
 Thermal correction to Enthalpy=                  0.024951
 Thermal correction to Gibbs Free Energy=         0.003506
 Sum of electronic and zero-point Energies=            -76.387781
 Sum of electronic and thermal Energies=               -76.384947
 Sum of electronic and thermal Enthalpies=             -76.384002
 Sum of electronic and thermal Free Energies=          -76.405448

                     E (Thermal)             CV                S
                      KCal/Mol        Cal/Mol-Kelvin    Cal/Mol-Kelvin
 Total                   15.065              5.997             45.136
 Electronic               0.000              0.000              0.000
 Translational            0.889              2.981             34.608
 Rotational               0.889              2.981             10.523
 Vibrational             13.287              0.035              0.005

 Optimization completed.
    -- Stationary point found.
 Normal termination of Gaussian 09 at Tue Sep 10 12:26:12 2019.
