 Gaussian 09, Revision E.01,
 Gaussian 09:  ES64L-G09RevE.01 30-Nov-2015

 ----------------------------------------------------------------------
 #P b3lyp/6-31g* # SCF=(xqc) # POpt=(CALCFC,TS,NOEIGEN) # int=ultrafine
 ----------------------------------------------------------------------

 --------
 comment:
 --------
 Symbolic Z-matrix:
 Charge =  0 Multiplicity = 2

 SCF Done:  E(UB3LYP) =  -41.0049581536     A.U. after   13 cycles

  Exact polarizability:   0.000   0.000   0.000   0.000   0.000   0.000
 Approx polarizability:  19.674  -2.222  14.589  -4.152   1.559  16.667

 SCF Done:  E(UB3LYP) =  -41.0088442462     A.U. after   11 cycles
 SCF Done:  E(UB3LYP) =  -41.0107861823     A.U. after   12 cycles
 SCF Done:  E(UB3LYP) =  -41.0108082417     A.U. after   12 cycles
 SCF Done:  E(UB3LYP) =  -41.0096281634     A.U. after   12 cycles
 SCF Done:  E(UB3LYP) =  -41.0092306892     A.U. after   12 cycles
 SCF Done:  E(UB3LYP) =  -41.0089398780     A.U. after   11 cycles
 SCF Done:  E(UB3LYP) =  -41.0073716268     A.U. after   12 cycles
 SCF Done:  E(UB3LYP) =  -41.0052891163     A.U. after   12 cycles
 SCF Done:  E(UB3LYP) =  -41.0047259465     A.U. after   12 cycles
 SCF Done:  E(UB3LYP) =  -41.0022519585     A.U. after   13 cycles
 SCF Done:  E(UB3LYP) =  -41.0016767219     A.U. after   12 cycles
 SCF Done:  E(UB3LYP) =  -41.0012236650     A.U. after   13 cycles
 SCF Done:  E(UB3LYP) =  -41.0016660756     A.U. after   12 cycles
 SCF Done:  E(UB3LYP) =  -41.0007954610     A.U. after   12 cycles
 SCF Done:  E(UB3LYP) =  -41.0020680221     A.U. after   13 cycles
 SCF Done:  E(UB3LYP) =  -41.0020203610     A.U. after   11 cycles
 SCF Done:  E(UB3LYP) =  -41.0020180853     A.U. after   11 cycles
 SCF Done:  E(UB3LYP) =  -41.0020285817     A.U. after    9 cycles
 SCF Done:  E(UB3LYP) =  -41.0020285872     A.U. after    8 cycles
 Optimization completed.
    -- Stationary point found.

                         Standard orientation:
 ---------------------------------------------------------------------
 Center     Atomic      Atomic             Coordinates (Angstroms)
 Number     Number       Type             X           Y           Z
 ---------------------------------------------------------------------
      1          6           0        0.271940   -0.000008   -0.000023
      2          1           0        0.519741   -0.865742   -0.611241
      3          1           0        0.521231   -0.096704    1.054967
      4          1           0        0.521016    0.961889   -0.444082
      5          1           0       -1.151535    0.000515    0.000259
      6          1           0       -2.042095    0.000091    0.000237
 ---------------------------------------------------------------------

 The electronic state is 2-A.
 Alpha  occ. eigenvalues --  -10.19732  -0.70205  -0.44784  -0.41633  -0.41630
 Alpha  occ. eigenvalues --   -0.21334
 Alpha virt. eigenvalues --    0.11444   0.16961   0.16963   0.19984   0.52465
 Alpha virt. eigenvalues --    0.52468   0.55535   0.69360   0.89346   0.89350
 Alpha virt. eigenvalues --    0.92272   0.99880   1.19279   1.63573   1.63575

  Beta  occ. eigenvalues --  -10.18628  -0.67436  -0.40868  -0.40865  -0.40609
  Beta virt. eigenvalues --   -0.07370   0.12286   0.17613   0.17615   0.22880
  Beta virt. eigenvalues --    0.52929   0.52932   0.60481   0.73216   0.90063
  Beta virt. eigenvalues --    0.90066   0.94380   1.00835   1.21714   1.67786

 Mulliken charges and spin densities:
               1          2
     1  C   -0.522753   0.729730
     2  H    0.177494  -0.022748
     3  H    0.177475  -0.022748
     4  H    0.177488  -0.022741
     5  H    0.002551  -0.149250
     6  H   -0.012255   0.487757
 Sum of Mulliken charges =  -0.00000   1.00000

 Dipole moment (field-independent basis, Debye):
    X=              0.7565    Y=             -0.0003    Z=             -0.0002  Tot=              0.7565
 Quadrupole moment (field-independent basis, Debye-Ang):
   XX=            -11.2306   YY=             -9.2326   ZZ=             -9.2331
   XY=              0.0010   XZ=              0.0011   YZ=             -0.0000

 Normal termination of Gaussian 09 at Thu Sep  5 23:09:19 2019.
