 Gaussian 09, Revision E.01,
 Gaussian 09:  ES64L-G09RevE.01 30-Nov-2015

 --------------------------------------------------------------------
 #P b3lyp/cc-pvdz # SCF=(xqc) # Freq=() # IOp(7/33=1) # int=ultrafine
 --------------------------------------------------------------------

 --------
 comment:
 --------
 Symbolic Z-matrix:
 Charge =  0 Multiplicity = 2

                         Standard orientation:
 ---------------------------------------------------------------------
 Center     Atomic      Atomic             Coordinates (Angstroms)
 Number     Number       Type             X           Y           Z
 ---------------------------------------------------------------------
      1          1           0        0.000000    0.000000    0.000000
 ---------------------------------------------------------------------

 SCF Done:  E(UB3LYP) = -0.501257936920     A.U. after    5 cycles

 The electronic state is 2-A1G.
 Alpha  occ. eigenvalues --   -0.31948
 Alpha virt. eigenvalues --    0.41803   1.20992   1.20992   1.20992
  Beta virt. eigenvalues --    0.04592   0.72224   1.53951   1.53951   1.53951

 Mulliken charges and spin densities:
               1          2
     1  H   -0.000000   1.000000
 Sum of Mulliken charges =  -0.00000   1.00000

 Dipole moment (field-independent basis, Debye):
    X=              0.0000    Y=              0.0000    Z=              0.0000  Tot=              0.0000
 Quadrupole moment (field-independent basis, Debye-Ang):
   XX=             -1.3419   YY=             -1.3419   ZZ=             -1.3419
   XY=              0.0000   XZ=              0.0000   YZ=              0.0000

  Exact polarizability:   0.638   0.000   0.638   0.000   0.000   0.638
 Approx polarizability:   0.579  -0.000   0.579  -0.000  -0.000   0.579

 - Thermochemistry -
 -------------------
 Temperature   298.150 Kelvin.  Pressure   1.00000 Atm.
 Atom     1 has atomic number  1 and mass   1.00783
 Molecular mass:     1.00783 amu.
 Zero-point vibrational energy          0.0 (Joules/Mol)
                                    0.00000 (Kcal/Mol)
 Vibrational temperatures:
          (Kelvin)

 Zero-point correction=                           0.000000 (Hartree/Particle)
 Thermal correction to Energy=                    0.001416
 Thermal correction to Enthalpy=                  0.002360
 Thermal correction to Gibbs Free Energy=        -0.010654
 Sum of electronic and zero-point Energies=             -0.501258
 Sum of electronic and thermal Energies=                -0.499842
 Sum of electronic and thermal Enthalpies=              -0.498897
 Sum of electronic and thermal Free Energies=           -0.511912

                     E (Thermal)             CV                S
                      KCal/Mol        Cal/Mol-Kelvin    Cal/Mol-Kelvin
 Total                    0.889              2.981             27.392
 Electronic               0.000              0.000              1.377
 Translational            0.889              2.981             26.014
 Rotational               0.000              0.000              0.000
 Vibrational              0.000              0.000              0.000

 Optimization completed.
    -- Stationary point found.

 1\1\GINC-BLUESLOGIN2\Freq\UB3LYP\CC-pVDZ\H1(2)\ELLIOTT\23-Aug-2019\0\\
 #P b3lyp/cc-pvdz # SCF=(xqc) # Freq=() # IOp(7/33=1) # int=ultrafine\\
 comment:\\0,2\H,0.,0.,0.\\Version=ES64L-G09RevE.01\State=2-A1G\HF=-0.5
 012579\S2=0.75\S2-1=0.\S2A=0.75\RMSD=1.279e-12\RMSF=0.000e+00\Thermal=
 0.0014163\Dipole=0.,0.,0.\DipoleDeriv=0.,0.,0.,0.,0.,0.,0.,0.,0.\Polar
 =0.6382659,0.,0.6382659,0.,0.,0.6382659\PG=OH [O(H1)]\NImag=0\\0.,0.,0
 .,0.,0.,0.\\0.,0.,0.\\\@

 Normal termination of Gaussian 09 at Fri Aug 23 16:55:51 2019.
