                               Psi4 1.3.2 release

  ==> Input File <==

--------------------------------------------------------------------------
#!
memory 1 GB

molecule {

0 1
O    0.052864   0.042244   0.000000
H    0.052864  -0.926332   0.000000
H   -0.891857   0.255886   0.000000
}
set basis cc-pvdz
set scf_type pk
set reference rks
set mp2_type conv
_, wfn = frequency('B3LYP', return_wfn=True)
hess = wfn.hessian()
hess.name = 'Hessian'
hess.print_out()
--------------------------------------------------------------------------

    Molecular point group: cs
  Charge       = 0
  Multiplicity = 1
  Basis Set: CC-PVDZ
    Blend: CC-PVDZ
  @RKS Final Energy:   -76.42062708472756
    Total Energy =                        -76.4206270847275704
    Molecular point group: cs
  Basis Set: CC-PVDZ
    Blend: CC-PVDZ
  Basis Set: CC-PVDZ
    Blend: CC-PVDZ
  @RKS Final Energy:   -76.42062708472750
    Total Energy =                        -76.4206270847275135
  Basis Set: CC-PVDZ
    Blend: CC-PVDZ
  Basis Set: CC-PVDZ
    Blend: CC-PVDZ
  @RKS Final Energy:   -76.42062248264907
    Total Energy =                        -76.4206224826490654
  Basis Set: CC-PVDZ
    Blend: CC-PVDZ
  Basis Set: CC-PVDZ
    Blend: CC-PVDZ
  @RKS Final Energy:   -76.42062313279871
    Total Energy =                        -76.4206231327987240
  Basis Set: CC-PVDZ
    Blend: CC-PVDZ
  Basis Set: CC-PVDZ
    Blend: CC-PVDZ
  @RKS Final Energy:   -76.42062095543278
    Total Energy =                        -76.4206209554327813
  Basis Set: CC-PVDZ
    Blend: CC-PVDZ
  Basis Set: CC-PVDZ
    Blend: CC-PVDZ
  @RKS Final Energy:   -76.42062140215781
    Total Energy =                        -76.4206214021578063
  Basis Set: CC-PVDZ
    Blend: CC-PVDZ
  Basis Set: CC-PVDZ
    Blend: CC-PVDZ
  @RKS Final Energy:   -76.42062194608289
    Total Energy =                        -76.4206219460828891
  Basis Set: CC-PVDZ
    Blend: CC-PVDZ
    Molecular point group: cs
  Charge       = 0
  Multiplicity = 1
  Basis Set: CC-PVDZ
    Blend: CC-PVDZ

    Orbital Energies [Eh]
    ---------------------

    Doubly Occupied:

       1Ap   -19.124858     2Ap    -0.991214     3Ap    -0.506590
       4Ap    -0.367040     1App   -0.287604

  @RKS Final Energy:   -76.42062261366765

   => Energetics <=

    Nuclear Repulsion Energy =              9.0772206979081602
    One-Electron Energy =                -123.0082553228735947
    Two-Electron Energy =                  45.0789413007777355
    DFT Exchange-Correlation Energy =      -7.5685292894799412
    Empirical Dispersion Energy =           0.0000000000000000
    VV10 Nonlocal Energy =                  0.0000000000000000
    Total Energy =                        -76.4206226136676463

  Dipole Moment: [D]
     X:    -1.5129      Y:    -1.2090      Z:     0.0000     Total:     1.9366

    Molecular point group: cs

    Geometry (in Angstrom), charge = 0, multiplicity = 1:

       Center              X                  Y                   Z               Mass
    ------------   -----------------  -----------------  -----------------  -----------------
         O            0.052864165504     0.042244171475     0.000000000000    15.994914619570
         H            0.054027585142    -0.927787724645     0.000000000000     1.007825032230
         H           -0.893020254135     0.257342067595     0.000000000000     1.007825032230

  Basis Set: CC-PVDZ
    Blend: CC-PVDZ

  -Total Gradient:
     Atom            X                  Y                   Z
    ------   -----------------  -----------------  -----------------
       1        0.000992024260     0.000792121708     0.000000000000
       2        0.000330776119    -0.001417820979     0.000000000000
       3       -0.001310537602     0.000635498090     0.000000000000

  Vibration                       7                   8                   9
  Freq [cm^-1]                1658.4749           3752.3559           3853.9635
  Irrep                           Ap                  Ap                  Ap
  Reduced mass [u]              1.0820              1.0458              1.0801
  Force const [mDyne/A]         1.7535              8.6757              9.4521

  ==> Thermochemistry Components <==

  Entropy, S
    Electronic S            0.000 [cal/(mol K)]        0.000 [J/(mol K)]       0.00000000 [mEh/K] (multiplicity = 1)
    Translational S        34.608 [cal/(mol K)]      144.801 [J/(mol K)]       0.05515177 [mEh/K] (mol. weight = 18.0106 [u], P = 101325.00 [Pa])
    Rotational S           11.907 [cal/(mol K)]       49.818 [J/(mol K)]       0.01897479 [mEh/K] (symmetry no. = 1)
    Vibrational S           0.006 [cal/(mol K)]        0.025 [J/(mol K)]       0.00000954 [mEh/K]
  Total S                  46.521 [cal/(mol K)]      194.644 [J/(mol K)]       0.07413610 [mEh/K]
  Correction S              0.000 [cal/(mol K)]        0.000 [J/(mol K)]       0.00000000 [mEh/K]

  Constant volume heat capacity, Cv
    Electronic Cv           0.000 [cal/(mol K)]        0.000 [J/(mol K)]       0.00000000 [mEh/K]
    Translational Cv        2.981 [cal/(mol K)]       12.472 [J/(mol K)]       0.00475022 [mEh/K]
    Rotational Cv           2.981 [cal/(mol K)]       12.472 [J/(mol K)]       0.00475022 [mEh/K]
    Vibrational Cv          0.043 [cal/(mol K)]        0.178 [J/(mol K)]       0.00006789 [mEh/K]
  Total Cv                  6.004 [cal/(mol K)]       25.122 [J/(mol K)]       0.00956832 [mEh/K]
  Correction Cv             0.000 [cal/(mol K)]        0.000 [J/(mol K)]       0.00000000 [mEh/K]

  Constant pressure heat capacity, Cp
    Electronic Cp           0.000 [cal/(mol K)]        0.000 [J/(mol K)]       0.00000000 [mEh/K]
    Translational Cp        4.968 [cal/(mol K)]       20.786 [J/(mol K)]       0.00791703 [mEh/K]
    Rotational Cp           2.981 [cal/(mol K)]       12.472 [J/(mol K)]       0.00475022 [mEh/K]
    Vibrational Cp          0.043 [cal/(mol K)]        0.178 [J/(mol K)]       0.00006789 [mEh/K]
  Total Cp                  7.991 [cal/(mol K)]       33.436 [J/(mol K)]       0.01273513 [mEh/K]
  Correction Cp             0.000 [cal/(mol K)]        0.000 [J/(mol K)]       0.00000000 [mEh/K]

  ==> Thermochemistry Energy Analysis <==

  Raw electronic energy, E0
  Total E0, Electronic energy at well bottom at 0 [K]                  -76.42062708 [Eh]

  Zero-point energy, ZPE_vib = Sum_i nu_i / 2
    Electronic ZPE          0.000 [kcal/mol]        0.000 [kJ/mol]       0.00000000 [Eh]
    Translational ZPE       0.000 [kcal/mol]        0.000 [kJ/mol]       0.00000000 [Eh]
    Rotational ZPE          0.000 [kcal/mol]        0.000 [kJ/mol]       0.00000000 [Eh]
    Vibrational ZPE        13.245 [kcal/mol]       55.416 [kJ/mol]       0.02110675 [Eh]        4632.397 [cm^-1]
  Correction ZPE           13.245 [kcal/mol]       55.416 [kJ/mol]       0.02110675 [Eh]        4632.397 [cm^-1]
  Total ZPE, Electronic energy at 0 [K]                                -76.39952033 [Eh]

  Thermal Energy, E (includes ZPE)
    Electronic E            0.000 [kcal/mol]        0.000 [kJ/mol]       0.00000000 [Eh]
    Translational E         0.889 [kcal/mol]        3.718 [kJ/mol]       0.00141628 [Eh]
    Rotational E            0.889 [kcal/mol]        3.718 [kJ/mol]       0.00141628 [Eh]
    Vibrational E          13.246 [kcal/mol]       55.422 [kJ/mol]       0.02110928 [Eh]
  Correction E             15.024 [kcal/mol]       62.859 [kJ/mol]       0.02394184 [Eh]
  Total E, Electronic energy at  298.15 [K]                            -76.39668525 [Eh]

  Enthalpy, H_trans = E_trans + k_B * T
    Electronic H            0.000 [kcal/mol]        0.000 [kJ/mol]       0.00000000 [Eh]
    Translational H         1.481 [kcal/mol]        6.197 [kJ/mol]       0.00236046 [Eh]
    Rotational H            0.889 [kcal/mol]        3.718 [kJ/mol]       0.00141628 [Eh]
    Vibrational H          13.246 [kcal/mol]       55.422 [kJ/mol]       0.02110928 [Eh]
  Correction H             15.616 [kcal/mol]       65.338 [kJ/mol]       0.02488602 [Eh]
  Total H, Enthalpy at  298.15 [K]                                     -76.39574106 [Eh]

  Gibbs free energy, G = H - T * S
    Electronic G            0.000 [kcal/mol]        0.000 [kJ/mol]       0.00000000 [Eh]
    Translational G        -8.837 [kcal/mol]      -36.975 [kJ/mol]      -0.01408304 [Eh]
    Rotational G           -2.661 [kcal/mol]      -11.135 [kJ/mol]      -0.00424106 [Eh]
    Vibrational G          13.244 [kcal/mol]       55.415 [kJ/mol]       0.02110644 [Eh]
  Correction G              1.746 [kcal/mol]        7.305 [kJ/mol]       0.00278234 [Eh]
  Total G, Free enthalpy at  298.15 [K]                                -76.41784474 [Eh]

*** Psi4 exiting successfully. Buy a developer a beer!
