                               Psi4 1.3.2 release

  ==> Input File <==

--------------------------------------------------------------------------
#!
memory 1 GB

molecule {

0 2
C    0.000000   0.000000  -0.000001
H    0.000000   0.000000   1.091180
H    0.000000   0.944989  -0.545585
H    0.000000  -0.944989  -0.545585
}
set basis cc-pvdz
set scf_type pk
set reference uks
set mp2_type conv
_, wfn = frequency('B3LYP', return_wfn=True)
hess = wfn.hessian()
hess.name = 'Hessian'
hess.print_out()
--------------------------------------------------------------------------

    Molecular point group: c2v
  Charge       = 0
  Multiplicity = 2
  Basis Set: CC-PVDZ
    Blend: CC-PVDZ
  @UKS Final Energy:   -39.83906430787106
    Total Energy =                        -39.8390643078710482
    Molecular point group: c2v
  Basis Set: CC-PVDZ
    Blend: CC-PVDZ
  Basis Set: CC-PVDZ
    Blend: CC-PVDZ
  @UKS Final Energy:   -39.83906430787104
    Total Energy =                        -39.8390643078710482
  Basis Set: CC-PVDZ
    Blend: CC-PVDZ
  Basis Set: CC-PVDZ
    Blend: CC-PVDZ
  @UKS Final Energy:   -39.83906114378446
    Total Energy =                        -39.8390611437844626
  Basis Set: CC-PVDZ
    Blend: CC-PVDZ
  Basis Set: CC-PVDZ
    Blend: CC-PVDZ
  @UKS Final Energy:   -39.83906115965311
    Total Energy =                        -39.8390611596531130
  Basis Set: CC-PVDZ
    Blend: CC-PVDZ
  @UKS Final Energy:   -39.83906237726612
    Total Energy =                        -39.8390623772661172
  @UKS Final Energy:   -39.83905884904198
    Total Energy =                        -39.8390588490419759
  @UKS Final Energy:   -39.83906237634515
    Total Energy =                        -39.8390623763451615
  Basis Set: CC-PVDZ
    Blend: CC-PVDZ
  @UKS Final Energy:   -39.83905884992855
    Total Energy =                        -39.8390588499285485
  Basis Set: CC-PVDZ
    Blend: CC-PVDZ
  Basis Set: CC-PVDZ
    Blend: CC-PVDZ
  @UKS Final Energy:   -39.83906420516929
    Total Energy =                        -39.8390642051692794
  Basis Set: CC-PVDZ
    Blend: CC-PVDZ
  Basis Set: CC-PVDZ
    Blend: CC-PVDZ
  @UKS Final Energy:   -39.83906115166558
    Total Energy =                        -39.8390611516655753
  Basis Set: CC-PVDZ
    Blend: CC-PVDZ
    Molecular point group: cs
  Charge       = 0
  Multiplicity = 2
  Basis Set: CC-PVDZ
    Blend: CC-PVDZ

    Orbital Energies [Eh]
    ---------------------

    Alpha Occupied:

       1Ap   -10.198914     2Ap    -0.681708     3Ap    -0.415925
       4Ap    -0.415911     1App   -0.229737

    Alpha Virtual:

       5Ap     0.072891     6Ap     0.141551     7Ap     0.141814
       8Ap     0.435626     9Ap     0.436509     2App    0.473462
      10Ap     0.487665    11Ap     0.654690    12Ap     0.655290
      13Ap     0.854969     3App    0.960872     4App    0.961378
      14Ap     1.356095    15Ap     1.450205    16Ap     1.452272
      17Ap     1.486188     5App    1.595458     6App    1.838162
       7App    1.838438    18Ap     2.079375    19Ap     2.081197
      20Ap     2.444207    21Ap     2.491868    22Ap     2.494041

    Beta Occupied:

       1Ap   -10.184637     2Ap    -0.640932     3Ap    -0.405894
       4Ap    -0.405851

    Beta Virtual:

       1App   -0.059883     5Ap     0.083572     6Ap     0.145692
       7Ap     0.145946     8Ap     0.438624     9Ap     0.439499
      10Ap     0.515786     2App    0.547964    11Ap     0.662297
      12Ap     0.662901    13Ap     0.883592     3App    0.998560
       4App    0.999115    14Ap     1.352488    15Ap     1.453496
      16Ap     1.455542    17Ap     1.551316     5App    1.607081
       6App    1.868529     7App    1.868806    18Ap     2.082396
      19Ap     2.084206    20Ap     2.449890    21Ap     2.499453
      22Ap     2.501622

    Final Occupation by Irrep:
             Ap   App
    DOCC [     4,    0 ]
    SOCC [     0,    1 ]

  @UKS Final Energy:   -39.83906155614517

   => Energetics <=

    Nuclear Repulsion Energy =              9.5692515879518005
    One-Electron Energy =                 -71.4602825536212833
    Two-Electron Energy =                  27.2982768991388802
    DFT Exchange-Correlation Energy =      -5.2463074896145594
    Empirical Dispersion Energy =           0.0000000000000000
    VV10 Nonlocal Energy =                  0.0000000000000000
    Total Energy =                        -39.8390615561451611

  UHF NO Occupations:
  HONO-2 :    3 Ap 1.9997289
  HONO-1 :    4 Ap 1.9986856
  HONO-0 :    1App 1.0000000
  LUNO+0 :    5 Ap 0.0013144
  LUNO+1 :    6 Ap 0.0002711
  LUNO+2 :    7 Ap 0.0002701
  LUNO+3 :    8 Ap 0.0000002

Computation Completed

Properties will be evaluated at   0.000000,   0.000000,   0.000000 [a0]

Properties computed using the SCF density matrix

  Nuclear Dipole Moment: [e a0]
     X:     0.0000      Y:     0.0000      Z:     0.0000

  Electronic Dipole Moment: [e a0]
     X:     0.0000      Y:    -0.0004      Z:    -0.0000

  Dipole Moment: [e a0]
     X:     0.0000      Y:    -0.0004      Z:     0.0000     Total:     0.0004

  Dipole Moment: [D]
     X:     0.0000      Y:    -0.0010      Z:     0.0000     Total:     0.0010

*** tstop() called on Ewan at Mon Sep  9 15:48:54 2019
Module time:
	user time   =       2.10 seconds =       0.04 minutes
	system time =       0.04 seconds =       0.00 minutes
	total time  =          2 seconds =       0.03 minutes
Total time:
	user time   =      27.97 seconds =       0.47 minutes
	system time =       0.41 seconds =       0.01 minutes
	total time  =         28 seconds =       0.47 minutes

*** tstart() called on Ewan
*** at Mon Sep  9 15:48:54 2019

         ------------------------------------------------------------
                                   SCF GRAD
                          Rob Parrish, Justin Turney,
                       Andy Simmonett, and Alex Sokolov
         ------------------------------------------------------------

  ==> Geometry <==

    Molecular point group: cs
    Full point group: Cs

    Geometry (in Angstrom), charge = 0, multiplicity = 2:

       Center              X                  Y                   Z               Mass
    ------------   -----------------  -----------------  -----------------  -----------------
         C            0.000000000000     0.000000000000    -0.000000872084    12.000000000000
         H            0.000000000000    -0.001521662944     1.091180127916     1.007825032230
         H            0.000000000000     0.945749831472    -0.546902667660     1.007825032230
         H            0.000000000000    -0.944228168528    -0.544267076507     1.007825032230

  Nuclear repulsion =    9.569251587951801

  ==> Basis Set <==

  Basis Set: CC-PVDZ
    Blend: CC-PVDZ
    Number of shells: 15
    Number of basis function: 29
    Number of Cartesian functions: 30
    Spherical Harmonics?: true
    Max angular momentum: 2

  ==> DirectJKGrad: Integral-Direct SCF Gradients <==

    Gradient:                    1
    J tasked:                  Yes
    K tasked:                  Yes
    wK tasked:                  No
    Integrals threads:           1
    Schwarz Cutoff:          0E+00

  ==> DFT Potential <==

   => Composite Functional: B3LYP <=

    B3LYP Hyb-GGA Exchange-Correlation Functional

    P. J. Stephens, F. J. Devlin, C. F. Chabalowski, and M. J. Frisch, J. Phys. Chem. 98, 11623 (1994)

    Deriv               =              1
    GGA                 =           TRUE
    Meta                =          FALSE

    Exchange Hybrid     =           TRUE
    MP2 Hybrid          =          FALSE

   => Exchange Functionals <=

    0.0800   Slater exchange
    0.7200         Becke 88

   => Exact (HF) Exchange <=

    0.2000               HF

   => Correlation Functionals <=

    0.1900   Vosko, Wilk & Nusair (VWN5_RPA)
    0.8100   Lee, Yang & Parr

   => Molecular Quadrature <=

    Radial Scheme          =       TREUTLER
    Pruning Scheme         =           FLAT
    Nuclear Scheme         =       TREUTLER

    BS radius alpha        =              1
    Pruning alpha          =              1
    Radial Points          =             75
    Spherical Points       =            302
    Total Points           =          88838
    Total Blocks           =            725
    Max Points             =            256
    Max Functions          =             29

  -Total Gradient:
     Atom            X                  Y                   Z
    ------   -----------------  -----------------  -----------------
       1        0.000000000000    -0.001311365632    -0.000000583832
       2        0.000000000000    -0.000224277907     0.000293205801
       3        0.000000000000     0.001016033766    -0.000715900534
       4        0.000000000000     0.000519586366     0.000429642408

*** tstop() called on Ewan at Mon Sep  9 15:48:55 2019
Module time:
	user time   =       0.52 seconds =       0.01 minutes
	system time =       0.00 seconds =       0.00 minutes
	total time  =          1 seconds =       0.02 minutes
Total time:
	user time   =      28.50 seconds =       0.47 minutes
	system time =       0.41 seconds =       0.01 minutes
	total time  =         29 seconds =       0.48 minutes

         ----------------------------------------------------------
                                   FINDIF
                     R. A. King and Jonathon Misiewicz
         ---------------------------------------------------------

  Computing second-derivative from gradients using projected,
  symmetry-adapted, cartesian coordinates.

  10 gradients passed in, including the reference geometry.
  Generating complete list of displacements from unique ones.

    Operation 2 takes plus displacements of irrep B1 to minus ones.
    Operation 2 takes plus displacements of irrep B2 to minus ones.

-------------------------------------------------------------

  ==> Harmonic Vibrational Analysis <==

  non-mass-weighted Hessian:       Symmetric? True   Hermitian? True   Lin Dep Dim?  6 (0)
  projection of translations (True) and rotations (True) removed 6 degrees of freedom (6)
  total projector:                 Symmetric? True   Hermitian? True   Lin Dep Dim?  6 (6)
  mass-weighted Hessian:           Symmetric? True   Hermitian? True   Lin Dep Dim?  6 (0)
  pre-proj  low-frequency mode:    0.0000i [cm^-1]
  pre-proj  low-frequency mode:    0.0000i [cm^-1]
  pre-proj  low-frequency mode:    0.0000i [cm^-1]
  pre-proj  low-frequency mode:    0.0000  [cm^-1]
  pre-proj  low-frequency mode:    0.0000  [cm^-1]
  pre-proj  low-frequency mode:    0.0000  [cm^-1]
  pre-proj  all modes:['0.0000i' '0.0000i' '0.0000i' '0.0000' '0.0000' '0.0000' '465.9733'
 '1371.1742' '1371.1890' '3096.8839' '3289.7424' '3289.7584']
  projected mass-weighted Hessian: Symmetric? True   Hermitian? True   Lin Dep Dim?  6 (6)
  post-proj low-frequency mode:    0.0000i [cm^-1] (TR)
  post-proj low-frequency mode:    0.0000i [cm^-1] (TR)
  post-proj low-frequency mode:    0.0000i [cm^-1] (TR)
  post-proj low-frequency mode:    0.0000i [cm^-1] (TR)
  post-proj low-frequency mode:    0.0000i [cm^-1] (TR)
  post-proj low-frequency mode:    0.0000  [cm^-1] (TR)
  post-proj  all modes:['0.0000i' '0.0000i' '0.0000i' '0.0000i' '0.0000i' '0.0000' '465.9733'
 '1371.1742' '1371.1890' '3096.8839' '3289.7424' '3289.7584']

  Vibration                       7                   8                   9
  Freq [cm^-1]                 465.9733           1371.1742           1371.1890
  Irrep                           B1                  B2                  A1
  Reduced mass [u]              1.2356              1.1021              1.1021
  Force const [mDyne/A]         0.1581              1.2209              1.2209
  Turning point v=0 [a0]        0.4573              0.2823              0.2823
  RMS dev v=0 [a0 u^1/2]        0.3594              0.2095              0.2095
  Char temp [K]                670.4318           1972.8143           1972.8357
  ----------------------------------------------------------------------------------
      1   C               -0.14  0.00  0.00    0.00 -0.09 -0.00    0.00  0.00 -0.09
      2   H                0.57  0.00 -0.00    0.00  0.81 -0.00    0.00 -0.00 -0.07
      3   H                0.57  0.00 -0.00    0.00  0.15  0.38   -0.00  0.38  0.59
      4   H                0.57  0.00  0.00   -0.00  0.15 -0.38   -0.00 -0.38  0.59

  Vibration                       10                  11                  12
  Freq [cm^-1]                3096.8839           3289.7424           3289.7584
  Irrep                           A1                  A1                  B2
  Reduced mass [u]              1.0078              1.1183              1.1183
  Force const [mDyne/A]         5.6949              7.1307              7.1307
  Turning point v=0 [a0]        0.1964              0.1809              0.1809
  RMS dev v=0 [a0 u^1/2]        0.1394              0.1353              0.1353
  Char temp [K]               4455.7265           4733.2069           4733.2300
  ----------------------------------------------------------------------------------
      1   C                0.00 -0.00 -0.00    0.00  0.00 -0.10    0.00 -0.10 -0.00
      2   H               -0.00 -0.00  0.58    0.00  0.00  0.81    0.00 -0.02  0.00
      3   H                0.00  0.50 -0.29   -0.00 -0.36  0.19    0.00  0.61 -0.36
      4   H                0.00 -0.50 -0.29   -0.00  0.36  0.19    0.00  0.61  0.36

  ==> Thermochemistry Components <==

  Entropy, S
    Electronic S            1.377 [cal/(mol K)]        5.763 [J/(mol K)]       0.00219507 [mEh/K] (multiplicity = 2)
    Translational S        34.068 [cal/(mol K)]      142.539 [J/(mol K)]       0.05429035 [mEh/K] (mol. weight = 15.0235 [u], P = 101325.00 [Pa])
    Rotational S           12.660 [cal/(mol K)]       52.971 [J/(mol K)]       0.02017560 [mEh/K] (symmetry no. = 2)
    Vibrational S           0.789 [cal/(mol K)]        3.303 [J/(mol K)]       0.00125811 [mEh/K]
  Total S                  48.895 [cal/(mol K)]      204.577 [J/(mol K)]       0.07791913 [mEh/K]
  Correction S              0.000 [cal/(mol K)]        0.000 [J/(mol K)]       0.00000000 [mEh/K]

  Constant volume heat capacity, Cv
    Electronic Cv           0.000 [cal/(mol K)]        0.000 [J/(mol K)]       0.00000000 [mEh/K]
    Translational Cv        2.981 [cal/(mol K)]       12.472 [J/(mol K)]       0.00475022 [mEh/K]
    Rotational Cv           2.981 [cal/(mol K)]       12.472 [J/(mol K)]       0.00475022 [mEh/K]
    Vibrational Cv          1.559 [cal/(mol K)]        6.524 [J/(mol K)]       0.00248472 [mEh/K]
  Total Cv                  7.521 [cal/(mol K)]       31.467 [J/(mol K)]       0.01198515 [mEh/K]
  Correction Cv             0.000 [cal/(mol K)]        0.000 [J/(mol K)]       0.00000000 [mEh/K]

  Constant pressure heat capacity, Cp
    Electronic Cp           0.000 [cal/(mol K)]        0.000 [J/(mol K)]       0.00000000 [mEh/K]
    Translational Cp        4.968 [cal/(mol K)]       20.786 [J/(mol K)]       0.00791703 [mEh/K]
    Rotational Cp           2.981 [cal/(mol K)]       12.472 [J/(mol K)]       0.00475022 [mEh/K]
    Vibrational Cp          1.559 [cal/(mol K)]        6.524 [J/(mol K)]       0.00248472 [mEh/K]
  Total Cp                  9.508 [cal/(mol K)]       39.781 [J/(mol K)]       0.01515196 [mEh/K]
  Correction Cp             0.000 [cal/(mol K)]        0.000 [J/(mol K)]       0.00000000 [mEh/K]

  ==> Thermochemistry Energy Analysis <==

  Raw electronic energy, E0
  Total E0, Electronic energy at well bottom at 0 [K]                  -39.83906431 [Eh]

  Zero-point energy, ZPE_vib = Sum_i nu_i / 2
    Electronic ZPE          0.000 [kcal/mol]        0.000 [kJ/mol]       0.00000000 [Eh]
    Translational ZPE       0.000 [kcal/mol]        0.000 [kJ/mol]       0.00000000 [Eh]
    Rotational ZPE          0.000 [kcal/mol]        0.000 [kJ/mol]       0.00000000 [Eh]
    Vibrational ZPE        18.420 [kcal/mol]       77.068 [kJ/mol]       0.02935355 [Eh]        6442.361 [cm^-1]
  Correction ZPE           18.420 [kcal/mol]       77.068 [kJ/mol]       0.02935355 [Eh]        6442.361 [cm^-1]
  Total ZPE, Electronic energy at 0 [K]                                -39.80971075 [Eh]

  Thermal Energy, E (includes ZPE)
    Electronic E            0.000 [kcal/mol]        0.000 [kJ/mol]       0.00000000 [Eh]
    Translational E         0.889 [kcal/mol]        3.718 [kJ/mol]       0.00141628 [Eh]
    Rotational E            0.889 [kcal/mol]        3.718 [kJ/mol]       0.00141628 [Eh]
    Vibrational E          18.587 [kcal/mol]       77.769 [kJ/mol]       0.02962082 [Eh]
  Correction E             20.365 [kcal/mol]       85.206 [kJ/mol]       0.03245337 [Eh]
  Total E, Electronic energy at  298.15 [K]                            -39.80661093 [Eh]

  Enthalpy, H_trans = E_trans + k_B * T
    Electronic H            0.000 [kcal/mol]        0.000 [kJ/mol]       0.00000000 [Eh]
    Translational H         1.481 [kcal/mol]        6.197 [kJ/mol]       0.00236046 [Eh]
    Rotational H            0.889 [kcal/mol]        3.718 [kJ/mol]       0.00141628 [Eh]
    Vibrational H          18.587 [kcal/mol]       77.769 [kJ/mol]       0.02962082 [Eh]
  Correction H             20.957 [kcal/mol]       87.685 [kJ/mol]       0.03339756 [Eh]
  Total H, Enthalpy at  298.15 [K]                                     -39.80566675 [Eh]

  Gibbs free energy, G = H - T * S
    Electronic G           -0.411 [kcal/mol]       -1.718 [kJ/mol]      -0.00065446 [Eh]
    Translational G        -8.676 [kcal/mol]      -36.301 [kJ/mol]      -0.01382621 [Eh]
    Rotational G           -2.886 [kcal/mol]      -12.075 [kJ/mol]      -0.00459908 [Eh]
    Vibrational G          18.352 [kcal/mol]       76.785 [kJ/mol]       0.02924571 [Eh]
  Correction G              6.379 [kcal/mol]       26.691 [kJ/mol]       0.01016597 [Eh]
  Total G, Free enthalpy at  298.15 [K]                                -39.82889834 [Eh]
  ## Hessian (Symmetry 0) ##
  Irrep: 1 Size: 12 x 12

                 1                   2                   3                   4                   5

    1     0.01984407056378     0.00000000000000     0.00000000000000    -0.00661463765077     0.00000000000000
    2     0.00000000000000     0.60976963562257     0.00000000000000     0.00000000000000    -0.05124081771708
    3     0.00000000000000     0.00000000000000     0.60976755577585     0.00000000000000     0.00000000000000
    4    -0.00661463765077     0.00000000000000     0.00000000000000     0.00220486170468     0.00000000000000
    5     0.00000000000000    -0.05124081771708     0.00000000000000     0.00000000000000     0.04307741758773
    6     0.00000000000000     0.00000000000000    -0.35526655373682     0.00000000000000     0.00000000000000
    7    -0.00661471645650     0.00000000000000     0.00000000000000     0.00220488797305     0.00000000000000
    8     0.00000000000000    -0.27926440895274     0.13164774982548     0.00000000000000     0.00408170006467
    9     0.00000000000000     0.13164776514372    -0.12725050101952     0.00000000000000     0.02251425101489
   10    -0.00661471645650     0.00000000000000     0.00000000000000     0.00220488797305     0.00000000000000
   11     0.00000000000000    -0.27926440895274    -0.13164774982548     0.00000000000000     0.00408170006467
   12     0.00000000000000    -0.13164776514372    -0.12725050101952     0.00000000000000    -0.02251425101489

                 6                   7                   8                   9                  10

    1     0.00000000000000    -0.00661471645650     0.00000000000000     0.00000000000000    -0.00661471645650
    2     0.00000000000000     0.00000000000000    -0.27926440895274     0.13164776514372     0.00000000000000
    3    -0.35526655373682     0.00000000000000     0.13164774982548    -0.12725050101952     0.00000000000000
    4     0.00000000000000     0.00220488797305     0.00000000000000     0.00000000000000     0.00220488797305
    5     0.00000000000000     0.00000000000000     0.00408170006467     0.02251425101489     0.00000000000000
    6     0.36768776401893     0.00000000000000    -0.00468579273006    -0.00621060514106     0.00000000000000
    7     0.00000000000000     0.00220491424173     0.00000000000000     0.00000000000000     0.00220491424173
    8    -0.00468579273006     0.00000000000000     0.28653948095052    -0.14056198662702     0.00000000000000
    9    -0.00621060514106     0.00000000000000    -0.14056198662702     0.12423146174725     0.00000000000000
   10     0.00000000000000     0.00220491424173     0.00000000000000     0.00000000000000     0.00220491424173
   11     0.00468579273006     0.00000000000000    -0.01135677206245    -0.01360002953160     0.00000000000000
   12    -0.00621060514106     0.00000000000000     0.01360002953160     0.00922964441332     0.00000000000000

                11                  12

    1     0.00000000000000     0.00000000000000
    2    -0.27926440895274    -0.13164776514372
    3    -0.13164774982548    -0.12725050101952
    4     0.00000000000000     0.00000000000000
    5     0.00408170006467    -0.02251425101489
    6     0.00468579273006    -0.00621060514106
    7     0.00000000000000     0.00000000000000
    8    -0.01135677206245     0.01360002953160
    9    -0.01360002953160     0.00922964441332
   10     0.00000000000000     0.00000000000000
   11     0.28653948095052     0.14056198662702
   12     0.14056198662702     0.12423146174725

    Psi4 stopped on: Monday, 09 September 2019 03:48PM
    Psi4 wall time for execution: 0:00:29.02

*** Psi4 exiting successfully. Buy a developer a beer!
