 Gaussian 09, Revision E.01,
 Gaussian 09:  ES64L-G09RevE.01 30-Nov-2015

 -----------------------------------------------------
 #P b3lyp/6-31g* # SCF=(xqc) # POpt=() # int=ultrafine
 -----------------------------------------------------

 --------
 comment:
 --------
 Symbolic Z-matrix:
 Charge =  0 Multiplicity = 2

 SCF Done:  E(UB3LYP) =  -41.0155913417     A.U. after   12 cycles
 SCF Done:  E(UB3LYP) =  -41.0157224924     A.U. after   10 cycles
 SCF Done:  E(UB3LYP) =  -41.0157280345     A.U. after    8 cycles
 SCF Done:  E(UB3LYP) =  -41.0157298062     A.U. after    7 cycles
 SCF Done:  E(UB3LYP) =  -41.0157323701     A.U. after    7 cycles
 SCF Done:  E(UB3LYP) =  -41.0157362141     A.U. after    7 cycles
 SCF Done:  E(UB3LYP) =  -41.0157438792     A.U. after    8 cycles
 SCF Done:  E(UB3LYP) =  -41.0157460479     A.U. after    8 cycles
 Optimization completed.
    -- Stationary point found.

                         Standard orientation:
 ---------------------------------------------------------------------
 Center     Atomic      Atomic             Coordinates (Angstroms)
 Number     Number       Type             X           Y           Z
 ---------------------------------------------------------------------
      1          6           0       -0.249029    0.000012    0.000017
      2          1           0       -0.605351    0.988799    0.300575
      3          1           0       -0.606494   -0.754345    0.705835
      4          1           0       -0.606332   -0.233756   -1.006328
      5          1           0        0.857603   -0.000771   -0.000214
      6          1           0        2.454745    0.000004    0.000032
 ---------------------------------------------------------------------

 The electronic state is 2-A.
 Alpha  occ. eigenvalues --  -10.17120  -0.69555  -0.41442  -0.39316  -0.39314
 Alpha  occ. eigenvalues --   -0.29050
 Alpha virt. eigenvalues --    0.12536   0.17403   0.17404   0.22597   0.53078
 Alpha virt. eigenvalues --    0.53078   0.53402   0.74996   0.89505   0.89508
 Alpha virt. eigenvalues --    0.93435   0.96660   1.15880   1.65122   1.65122

  Beta  occ. eigenvalues --  -10.16934  -0.69093  -0.39420  -0.39198  -0.39196
  Beta virt. eigenvalues --   -0.08423   0.12803   0.17513   0.17514   0.24324
  Beta virt. eigenvalues --    0.53078   0.53079   0.54353   0.89659   0.89662
  Beta virt. eigenvalues --    0.90309   0.93694   0.97502   1.16745   1.65662

 Mulliken charges and spin densities:
               1          2
     1  C   -0.602898   0.100658
     2  H    0.160091  -0.001049
     3  H    0.160087  -0.001039
     4  H    0.160079  -0.001039
     5  H    0.126126  -0.041488
     6  H   -0.003484   0.943956
 Sum of Mulliken charges =   0.00000   1.00000

 Dipole moment (field-independent basis, Debye):
    X=             -0.1855    Y=              0.0000    Z=             -0.0000  Tot=              0.1855
 Quadrupole moment (field-independent basis, Debye-Ang):
   XX=            -10.0208   YY=             -9.5053   ZZ=             -9.5056
   XY=              0.0001   XZ=             -0.0001   YZ=             -0.0000

 Normal termination of Gaussian 09 at Thu Sep  5 23:08:24 2019.
