 Gaussian 09, Revision E.01,
 Gaussian 09:  ES64L-G09RevE.01 30-Nov-2015

 ------------------------------------------------------
 #P b3lyp/cc-pvdz # SCF=(xqc) # POpt=() # int=ultrafine
 ------------------------------------------------------

 --------
 comment:
 --------
 Symbolic Z-matrix:
 Charge =  0 Multiplicity = 2

 SCF Done:  E(UB3LYP) = -0.501257936920     A.U. after    5 cycles

 The electronic state is 2-A1G.
 Alpha  occ. eigenvalues --   -0.31948
 Alpha virt. eigenvalues --    0.41803   1.20992   1.20992   1.20992
  Beta virt. eigenvalues --    0.04592   0.72224   1.53951   1.53951   1.53951

 Mulliken charges and spin densities:
               1          2
     1  H   -0.000000   1.000000
 Sum of Mulliken charges =  -0.00000   1.00000

 Dipole moment (field-independent basis, Debye):
    X=              0.0000    Y=              0.0000    Z=              0.0000  Tot=              0.0000
 Quadrupole moment (field-independent basis, Debye-Ang):
   XX=             -1.3419   YY=             -1.3419   ZZ=             -1.3419
   XY=              0.0000   XZ=              0.0000   YZ=              0.0000

 Optimization completed.
    -- Stationary point found.

                         Standard orientation:
 ---------------------------------------------------------------------
 Center     Atomic      Atomic             Coordinates (Angstroms)
 Number     Number       Type             X           Y           Z
 ---------------------------------------------------------------------
      1          1           0        0.000000    0.000000    0.000000
 ---------------------------------------------------------------------

 1\1\GINC-BLUESLOGIN2\FOpt\UB3LYP\CC-pVDZ\H1(2)\ELLIOTT\23-Aug-2019\0\\
 #P b3lyp/cc-pvdz # SCF=(xqc) # POpt=() # int=ultrafine\\comment:\\0,2\
 H,0.,0.,0.\\Version=ES64L-G09RevE.01\State=2-A1G\HF=-0.5012579\S2=0.75
 \S2-1=0.\S2A=0.75\RMSD=1.279e-12\RMSF=0.000e+00\Dipole=0.,0.,0.\Quadru
 pole=0.,0.,0.,0.,0.,0.\PG=OH [O(H1)]\\@

 SOME PEOPLE TRY TO PULL THE WOOL OVER YOUR EYES

 Normal termination of Gaussian 09 at Fri Aug 23 16:55:48 2019.
