                               Psi4 1.3.2 release

  ==> Input File <==

--------------------------------------------------------------------------
#!
memory 1 GB

molecule {

0 1
N   -0.055521  -0.039484  -0.030679
H   -0.055521  -0.039484   0.994121
H   -0.055521   0.953530  -0.283928
H    0.882472  -0.365441  -0.283927
}
set basis cc-pvdz
set scf_type pk
set reference rks
set mp2_type conv
_, wfn = frequency('B3LYP', return_wfn=True)
hess = wfn.hessian()
hess.name = 'Hessian'
hess.print_out()
--------------------------------------------------------------------------

    Molecular point group: c1
  Charge       = 0
  Multiplicity = 1
  Basis Set: CC-PVDZ
    Blend: CC-PVDZ
  @RKS Final Energy:   -56.55425440823223
    Total Energy =                        -56.5542544082322323
    Molecular point group: c1
  Basis Set: CC-PVDZ
    Blend: CC-PVDZ
  Basis Set: CC-PVDZ
    Blend: CC-PVDZ
  @RKS Final Energy:   -56.55425440823220
    Total Energy =                        -56.5542544082321967
  Basis Set: CC-PVDZ
    Blend: CC-PVDZ
  Basis Set: CC-PVDZ
    Blend: CC-PVDZ
  @RKS Final Energy:   -56.55425181758834
    Total Energy =                        -56.5542518175883444
  Basis Set: CC-PVDZ
    Blend: CC-PVDZ
  Basis Set: CC-PVDZ
    Blend: CC-PVDZ
  @RKS Final Energy:   -56.55425191162327
    Total Energy =                        -56.5542519116232683
  Basis Set: CC-PVDZ
    Blend: CC-PVDZ
  @RKS Final Energy:   -56.55425082634905
    Total Energy =                        -56.5542508263490475
  @RKS Final Energy:   -56.55425086849599
    Total Energy =                        -56.5542508684959913
  @RKS Final Energy:   -56.55425070824619
    Total Energy =                        -56.5542507082461867
  @RKS Final Energy:   -56.55425080196536
    Total Energy =                        -56.5542508019653525
  @RKS Final Energy:   -56.55425106681099
    Total Energy =                        -56.5542510668109912
  @RKS Final Energy:   -56.55425065254779
    Total Energy =                        -56.5542506525477933
  Basis Set: CC-PVDZ
    Blend: CC-PVDZ
  @RKS Final Energy:   -56.55425066384027
    Total Energy =                        -56.5542506638402713
  Basis Set: CC-PVDZ
    Blend: CC-PVDZ
  Basis Set: CC-PVDZ
    Blend: CC-PVDZ
  @RKS Final Energy:   -56.55425016838316
    Total Energy =                        -56.5542501683831560
  Basis Set: CC-PVDZ
    Blend: CC-PVDZ
  Basis Set: CC-PVDZ
    Blend: CC-PVDZ
  @RKS Final Energy:   -56.55425067791928
    Total Energy =                        -56.5542506779192777
  Basis Set: CC-PVDZ
    Blend: CC-PVDZ
    Molecular point group: c1
  Charge       = 0
  Multiplicity = 1
  Basis Set: CC-PVDZ
    Blend: CC-PVDZ

    Orbital Energies [Eh]
    ---------------------

    Doubly Occupied:

       1A    -14.302662     2A     -0.842190     3A     -0.443967
       4A     -0.443835     5A     -0.255625

  @RKS Final Energy:   -56.55425004231505

   => Energetics <=

    Nuclear Repulsion Energy =             11.8362012806338655
    One-Electron Energy =                 -99.5316787293187133
    Two-Electron Energy =                  37.6439643404703617
    DFT Exchange-Correlation Energy =      -6.5027369341005690
    Empirical Dispersion Energy =           0.0000000000000000
    VV10 Nonlocal Energy =                  0.0000000000000000
    Total Energy =                        -56.5542500423150472

  Dipole Moment: [D]
     X:     1.2537      Y:     0.8916      Z:     0.6918     Total:     1.6868

    Molecular point group: c1

    Geometry (in Angstrom), charge = 0, multiplicity = 1:

       Center              X                  Y                   Z               Mass
    ------------   -----------------  -----------------  -----------------  -----------------
         N           -0.055521105295    -0.039484028063    -0.030679072699    14.003074004430
         H           -0.055521105295    -0.039484028063     0.994120927301     1.007825032230
         H           -0.054441033337     0.952011214770    -0.283928071547     1.007825032230
         H            0.881391822746    -0.363922270896    -0.283927073850     1.007825032230

  Basis Set: CC-PVDZ
    Blend: CC-PVDZ

  -Total Gradient:
     Atom            X                  Y                   Z
    ------   -----------------  -----------------  -----------------
       1        0.000837182013     0.000596044119    -0.000494865799
       2        0.000027384419     0.000019390715    -0.000020831314
       3        0.000263712133    -0.001282305135     0.000261461696
       4       -0.001124128786     0.000669821949     0.000261394273

  Vibration                       7                   8                   9
  Freq [cm^-1]                1123.4874           1673.1612           1673.2161
  Irrep                           A                   A                   A
  Reduced mass [u]              1.1765              1.0622              1.0622
  Force const [mDyne/A]         0.8750              1.7520              1.7521

  Vibration                       10                  11                  12
  Freq [cm^-1]                3417.2721           3531.4815           3531.5100
  Irrep                           A                   A                   A
  Reduced mass [u]              1.0299              1.0865              1.0865
  Force const [mDyne/A]         7.0858              7.9833              7.9835

  ==> Thermochemistry Components <==

  Entropy, S
    Electronic S            0.000 [cal/(mol K)]        0.000 [J/(mol K)]       0.00000000 [mEh/K] (multiplicity = 1)
    Translational S        34.441 [cal/(mol K)]      144.100 [J/(mol K)]       0.05488488 [mEh/K] (mol. weight = 17.0265 [u], P = 101325.00 [Pa])
    Rotational S           13.685 [cal/(mol K)]       57.259 [J/(mol K)]       0.02180889 [mEh/K] (symmetry no. = 1)
    Vibrational S           0.068 [cal/(mol K)]        0.284 [J/(mol K)]       0.00010817 [mEh/K]
  Total S                  48.194 [cal/(mol K)]      201.643 [J/(mol K)]       0.07680194 [mEh/K]
  Correction S              0.000 [cal/(mol K)]        0.000 [J/(mol K)]       0.00000000 [mEh/K]

  Constant volume heat capacity, Cv
    Electronic Cv           0.000 [cal/(mol K)]        0.000 [J/(mol K)]       0.00000000 [mEh/K]
    Translational Cv        2.981 [cal/(mol K)]       12.472 [J/(mol K)]       0.00475022 [mEh/K]
    Rotational Cv           2.981 [cal/(mol K)]       12.472 [J/(mol K)]       0.00475022 [mEh/K]
    Vibrational Cv          0.341 [cal/(mol K)]        1.428 [J/(mol K)]       0.00054392 [mEh/K]
  Total Cv                  6.303 [cal/(mol K)]       26.371 [J/(mol K)]       0.01004435 [mEh/K]
  Correction Cv             0.000 [cal/(mol K)]        0.000 [J/(mol K)]       0.00000000 [mEh/K]

  Constant pressure heat capacity, Cp
    Electronic Cp           0.000 [cal/(mol K)]        0.000 [J/(mol K)]       0.00000000 [mEh/K]
    Translational Cp        4.968 [cal/(mol K)]       20.786 [J/(mol K)]       0.00791703 [mEh/K]
    Rotational Cp           2.981 [cal/(mol K)]       12.472 [J/(mol K)]       0.00475022 [mEh/K]
    Vibrational Cp          0.341 [cal/(mol K)]        1.428 [J/(mol K)]       0.00054392 [mEh/K]
  Total Cp                  8.290 [cal/(mol K)]       34.686 [J/(mol K)]       0.01321116 [mEh/K]
  Correction Cp             0.000 [cal/(mol K)]        0.000 [J/(mol K)]       0.00000000 [mEh/K]

  ==> Thermochemistry Energy Analysis <==

  Raw electronic energy, E0
  Total E0, Electronic energy at well bottom at 0 [K]                  -56.55425441 [Eh]

  Zero-point energy, ZPE_vib = Sum_i nu_i / 2
    Electronic ZPE          0.000 [kcal/mol]        0.000 [kJ/mol]       0.00000000 [Eh]
    Translational ZPE       0.000 [kcal/mol]        0.000 [kJ/mol]       0.00000000 [Eh]
    Rotational ZPE          0.000 [kcal/mol]        0.000 [kJ/mol]       0.00000000 [Eh]
    Vibrational ZPE        21.372 [kcal/mol]       89.422 [kJ/mol]       0.03405890 [Eh]        7475.064 [cm^-1]
  Correction ZPE           21.372 [kcal/mol]       89.422 [kJ/mol]       0.03405890 [Eh]        7475.064 [cm^-1]
  Total ZPE, Electronic energy at 0 [K]                                -56.52019551 [Eh]

  Thermal Energy, E (includes ZPE)
    Electronic E            0.000 [kcal/mol]        0.000 [kJ/mol]       0.00000000 [Eh]
    Translational E         0.889 [kcal/mol]        3.718 [kJ/mol]       0.00141628 [Eh]
    Rotational E            0.889 [kcal/mol]        3.718 [kJ/mol]       0.00141628 [Eh]
    Vibrational E          21.390 [kcal/mol]       89.494 [kJ/mol]       0.03408638 [Eh]
  Correction E             23.167 [kcal/mol]       96.931 [kJ/mol]       0.03691893 [Eh]
  Total E, Electronic energy at  298.15 [K]                            -56.51733548 [Eh]

  Enthalpy, H_trans = E_trans + k_B * T
    Electronic H            0.000 [kcal/mol]        0.000 [kJ/mol]       0.00000000 [Eh]
    Translational H         1.481 [kcal/mol]        6.197 [kJ/mol]       0.00236046 [Eh]
    Rotational H            0.889 [kcal/mol]        3.718 [kJ/mol]       0.00141628 [Eh]
    Vibrational H          21.390 [kcal/mol]       89.494 [kJ/mol]       0.03408638 [Eh]
  Correction H             23.759 [kcal/mol]       99.410 [kJ/mol]       0.03786312 [Eh]
  Total H, Enthalpy at  298.15 [K]                                     -56.51639129 [Eh]

  Gibbs free energy, G = H - T * S
    Electronic G            0.000 [kcal/mol]        0.000 [kJ/mol]       0.00000000 [Eh]
    Translational G        -8.787 [kcal/mol]      -36.766 [kJ/mol]      -0.01400347 [Eh]
    Rotational G           -3.192 [kcal/mol]      -13.353 [kJ/mol]      -0.00508604 [Eh]
    Vibrational G          21.369 [kcal/mol]       89.409 [kJ/mol]       0.03405413 [Eh]
  Correction G              9.390 [kcal/mol]       39.290 [kJ/mol]       0.01496462 [Eh]
  Total G, Free enthalpy at  298.15 [K]                                -56.53928979 [Eh]

*** Psi4 exiting successfully. Buy a developer a beer!
