 Gaussian 09, Revision E.01,
 Gaussian 09:  ES64L-G09RevE.01 30-Nov-2015

 -----------------------------------------------------
 #P b3lyp/6-31g* # SCF=(xqc) # POpt=() # int=ultrafine
 -----------------------------------------------------

 --------
 comment:
 --------
 Symbolic Z-matrix:
 Charge =  0 Multiplicity = 2

 SCF Done:  E(UB3LYP) =  -39.8382918307     A.U. after   10 cycles

 The electronic state is 2-A2".
 Alpha  occ. eigenvalues --  -10.19150  -0.68127  -0.41646  -0.41646  -0.22427
 Alpha virt. eigenvalues --    0.11467   0.18209   0.18209   0.53685   0.54490
 Alpha virt. eigenvalues --    0.54490   0.68303   0.91452   0.91452   0.95819
 Alpha virt. eigenvalues --    1.65009   1.65009   2.01083   2.18697   2.18697

  Beta  occ. eigenvalues --  -10.17739  -0.64059  -0.40682  -0.40682
  Beta virt. eigenvalues --   -0.04795   0.13079   0.18760   0.18760   0.55305
  Beta virt. eigenvalues --    0.55305   0.61533   0.70966   0.91940   0.91940
  Beta virt. eigenvalues --    0.98701   1.72169   1.72169   2.09725   2.19824

 Mulliken charges and spin densities:
               1          2
     1  C   -0.487620   1.155752
     2  H    0.162540  -0.051917
     3  H    0.162540  -0.051917
     4  H    0.162540  -0.051917
 Sum of Mulliken charges =   0.00000   1.00000

 Dipole moment (field-independent basis, Debye):
    X=             -0.0000    Y=             -0.0000    Z=             -0.0000  Tot=              0.0000
 Quadrupole moment (field-independent basis, Debye-Ang):
   XX=             -7.0056   YY=             -7.0056   ZZ=             -8.6400
   XY=              0.0000   XZ=              0.0000   YZ=             -0.0000

 Optimization completed.
    -- Stationary point found.

                         Standard orientation:
 ---------------------------------------------------------------------
 Center     Atomic      Atomic             Coordinates (Angstroms)
 Number     Number       Type             X           Y           Z
 ---------------------------------------------------------------------
      1          6           0        0.000000    0.000000    0.000000
      2          1           0        0.000000    1.082548   -0.000000
      3          1           0        0.937514   -0.541274   -0.000000
      4          1           0       -0.937514   -0.541274   -0.000000
 ---------------------------------------------------------------------

 Normal termination of Gaussian 09 at Fri Aug 23 16:04:35 2019.
