 Gaussian 09, Revision E.01,
 Gaussian 09:  ES64L-G09RevE.01 30-Nov-2015

 -----------------------------------------------------
 #P b3lyp/6-31g* # SCF=(xqc) # POpt=() # int=ultrafine
 -----------------------------------------------------

 --------
 comment:
 --------
 Symbolic Z-matrix:
 Charge =  0 Multiplicity = 2

 SCF Done:  E(UB3LYP) =  -41.0000951596     A.U. after   12 cycles
 SCF Done:  E(UB3LYP) =  -41.0044657445     A.U. after   12 cycles
 SCF Done:  E(UB3LYP) =  -41.0052884575     A.U. after   12 cycles
 SCF Done:  E(UB3LYP) =  -41.0053074554     A.U. after    9 cycles
 SCF Done:  E(UB3LYP) =  -41.0053170994     A.U. after    7 cycles
 SCF Done:  E(UB3LYP) =  -41.0053273477     A.U. after    9 cycles
 SCF Done:  E(UB3LYP) =  -41.0053304126     A.U. after    7 cycles
 SCF Done:  E(UB3LYP) =  -41.0053307023     A.U. after    7 cycles
 Optimization completed.
    -- Stationary point found.

                         Standard orientation:
 ---------------------------------------------------------------------
 Center     Atomic      Atomic             Coordinates (Angstroms)
 Number     Number       Type             X           Y           Z
 ---------------------------------------------------------------------
      1          6           0       -0.228237    0.000012    0.000042
      2          1           0       -0.542934    0.965562    0.399854
      3          1           0       -0.542628   -0.829456    0.635907
      4          1           0       -0.541789   -0.136401   -1.036457
      5          1           0        0.985530    0.000173    0.000218
      6          1           0        2.011244    0.000048    0.000227
 ---------------------------------------------------------------------

 The electronic state is 2-A.
 Alpha  occ. eigenvalues --  -10.18860  -0.70809  -0.45610  -0.40834  -0.40830
 Alpha  occ. eigenvalues --   -0.22718
 Alpha virt. eigenvalues --    0.11966   0.16762   0.16764   0.23248   0.52296
 Alpha virt. eigenvalues --    0.52297   0.55174   0.72213   0.88904   0.88909
 Alpha virt. eigenvalues --    0.92811   0.94788   1.21886   1.63675   1.63676

  Beta  occ. eigenvalues --  -10.18118  -0.68971  -0.41251  -0.40338  -0.40334
  Beta virt. eigenvalues --   -0.07621   0.12455   0.17226   0.17228   0.25898
  Beta virt. eigenvalues --    0.52504   0.52505   0.58115   0.79809   0.89477
  Beta virt. eigenvalues --    0.89483   0.95056   0.95736   1.23720   1.66051

 Mulliken charges and spin densities:
               1          2
     1  C   -0.542132   0.425713
     2  H    0.172011  -0.009564
     3  H    0.172008  -0.009569
     4  H    0.171992  -0.009571
     5  H    0.046510  -0.127223
     6  H   -0.020389   0.730215
 Sum of Mulliken charges =   0.00000   1.00000

 Dipole moment (field-independent basis, Debye):
    X=             -0.7073    Y=             -0.0001    Z=             -0.0003  Tot=              0.7073
 Quadrupole moment (field-independent basis, Debye-Ang):
   XX=            -11.2331   YY=             -9.3391   ZZ=             -9.3400
   XY=             -0.0003   XZ=             -0.0009   YZ=             -0.0000

 Normal termination of Gaussian 09 at Fri Aug 23 16:08:21 2019.
