 Gaussian 09, Revision E.01,
 Gaussian 09:  ES64L-G09RevE.01 30-Nov-2015

 -------------------------------------------------------------------
 #P b3lyp/6-31g* # SCF=(xqc) # Freq=() # IOp(7/33=1) # int=ultrafine
 -------------------------------------------------------------------

 --------
 comment:
 --------
 Symbolic Z-matrix:
 Charge =  0 Multiplicity = 1

                         Standard orientation:
 ---------------------------------------------------------------------
 Center     Atomic      Atomic             Coordinates (Angstroms)
 Number     Number       Type             X           Y           Z
 ---------------------------------------------------------------------
      1          6           0        0.000000    0.000000    0.000000
      2          1           0        0.631216    0.631216    0.631216
      3          1           0       -0.631216   -0.631216    0.631216
      4          1           0       -0.631216    0.631216   -0.631216
      5          1           0        0.631216   -0.631216   -0.631216
 ---------------------------------------------------------------------

 SCF Done:  E(RB3LYP) =  -40.5183833360     A.U. after    8 cycles

 The electronic state is 1-A1.
 Alpha  occ. eigenvalues --  -10.16696  -0.69029  -0.38906  -0.38906  -0.38906
 Alpha virt. eigenvalues --    0.11791   0.17653   0.17653   0.17653   0.53326
 Alpha virt. eigenvalues --    0.53326   0.53326   0.89770   0.89770   0.89770
 Alpha virt. eigenvalues --    0.94742   1.09984   1.65652   1.65652   2.24358

 Mulliken charges:
               1
     1  C   -0.628178
     2  H    0.157044
     3  H    0.157044
     4  H    0.157044
     5  H    0.157044
 Sum of Mulliken charges =  -0.00000

 Dipole moment (field-independent basis, Debye):
    X=             -0.0000    Y=             -0.0000    Z=             -0.0000  Tot=              0.0000
 Quadrupole moment (field-independent basis, Debye-Ang):
   XX=             -8.2515   YY=             -8.2515   ZZ=             -8.2515
   XY=             -0.0000   XZ=              0.0000   YZ=              0.0000

  Exact polarizability:  12.352   0.000  12.352   0.000   0.000  12.352
 Approx polarizability:  14.599  -0.000  14.599  -0.000  -0.000  14.599

                      1                      2                      3
                     T2                     T2                     T2
 Frequencies --   1373.1182              1373.1182              1373.1182
 Red. masses --      1.1787                 1.1787                 1.1787
 Frc consts  --      1.3094                 1.3094                 1.3094
 IR Inten    --     15.4101                15.4101                15.4101

                      4                      5                      6
                      E                      E                     A1
 Frequencies --   1593.1715              1593.1715              3053.1193
 Red. masses --      1.0078                 1.0078                 1.0078
 Frc consts  --      1.5072                 1.5072                 5.5351
 IR Inten    --      0.0000                 0.0000                 0.0000

                      7                      8                      9
                     T2                     T2                     T2
 Frequencies --   3162.9372              3162.9372              3162.9372
 Red. masses --      1.1019                 1.1019                 1.1019
 Frc consts  --      6.4947                 6.4947                 6.4947
 IR Inten    --     26.4069                26.4069                26.4069

 - Thermochemistry -
 -------------------
 Temperature   298.150 Kelvin.  Pressure   1.00000 Atm.
 Atom     1 has atomic number  6 and mass  12.00000

 Molecular mass:    16.03130 amu.
 Principal axes and moments of inertia in atomic units:
                           1         2         3
     Eigenvalues --    11.47173  11.47173  11.47173
           X           -0.00000   1.00000   0.00000
           Y            1.00000   0.00000   0.00000
           Z           -0.00000   0.00000   1.00000
 This molecule is a spherical top.
 Rotational symmetry number 12.
 Rotational temperatures (Kelvin)      7.55020     7.55020     7.55020
 Rotational constants (GHZ):         157.32077   157.32077   157.32077
 Zero-point vibrational energy     118715.2 (Joules/Mol)
                                   28.37361 (Kcal/Mol)
 Vibrational temperatures:   1975.61  1975.61  1975.61  2292.22  2292.22
          (Kelvin)           4392.75  4550.76  4550.76  4550.76

 Zero-point correction=                           0.045216 (Hartree/Particle)
 Thermal correction to Energy=                    0.048080
 Thermal correction to Enthalpy=                  0.049025
 Thermal correction to Gibbs Free Energy=         0.027893
 Sum of electronic and zero-point Energies=            -40.473167
 Sum of electronic and thermal Energies=               -40.470303
 Sum of electronic and thermal Enthalpies=             -40.469359
 Sum of electronic and thermal Free Energies=          -40.490490

                     E (Thermal)             CV                S
                      KCal/Mol        Cal/Mol-Kelvin    Cal/Mol-Kelvin
 Total                   30.171              6.418             44.475
 Electronic               0.000              0.000              0.000
 Translational            0.889              2.981             34.261
 Rotational               0.889              2.981             10.138
 Vibrational             28.393              0.456              0.076

 Optimization completed.
    -- Stationary point found.

 1\1\GINC-BLUESLOGIN2\Freq\RB3LYP\6-31G(d)\C1H4\ELLIOTT\23-Aug-2019\0\\
 #P b3lyp/6-31g* # SCF=(xqc) # Freq=() # IOp(7/33=1) # int=ultrafine\\c
 omment:\\0,1\C,0.,0.,0.\H,0.631216,0.631216,0.631216\H,-0.631216,-0.63
 1216,0.631216\H,-0.631216,0.631216,-0.631216\H,0.631216,-0.631216,-0.6
 31216\\Version=ES64L-G09RevE.01\State=1-A1\HF=-40.5183833\RMSD=3.025e-
 09\RMSF=1.179e-05\ZeroPoint=0.0452162\Thermal=0.0480804\Dipole=0.,0.,0
 .\DipoleDeriv=0.0007505,0.,0.,0.,0.0007505,0.,0.,0.,0.0007505,-0.00018
 76,-0.0735102,-0.0735102,-0.0735102,-0.0001876,-0.0735102,-0.0735102,-

 Normal termination of Gaussian 09 at Fri Aug 23 16:04:26 2019.
