 Gaussian 09, Revision E.01,
 Gaussian 09:  ES64L-G09RevE.01 30-Nov-2015

 --------------------------------------------------------------------
 #P b3lyp/cc-pvdz # SCF=(xqc) # Freq=() # IOp(7/33=1) # int=ultrafine
 --------------------------------------------------------------------

 --------
 comment:
 --------
 Symbolic Z-matrix:
 Charge =  0 Multiplicity = 2

                         Standard orientation:
 ---------------------------------------------------------------------
 Center     Atomic      Atomic             Coordinates (Angstroms)
 Number     Number       Type             X           Y           Z
 ---------------------------------------------------------------------
      1          6           0        0.000000    0.000000    0.000000
      2          1           0       -0.000000    1.091180    0.000000
      3          1           0       -0.944990   -0.545590    0.000000
      4          1           0        0.944990   -0.545590    0.000000
 ---------------------------------------------------------------------

 SCF Done:  E(UB3LYP) =  -39.8390643014     A.U. after   10 cycles

 The electronic state is 2-A2".
 Alpha  occ. eigenvalues --  -10.19891  -0.68171  -0.41592  -0.41592  -0.22974
 Alpha virt. eigenvalues --    0.07289   0.14168   0.14168   0.43607   0.43607
 Alpha virt. eigenvalues --    0.47346   0.48766   0.65499   0.65499   0.85497
 Alpha virt. eigenvalues --    0.96112   0.96112   1.35610   1.45124   1.45124

  Beta  occ. eigenvalues --  -10.18464  -0.64093  -0.40587  -0.40587
  Beta virt. eigenvalues --   -0.05988   0.08357   0.14582   0.14582   0.43906
  Beta virt. eigenvalues --    0.43906   0.51578   0.54796   0.66260   0.66260
  Beta virt. eigenvalues --    0.88359   0.99884   0.99884   1.35250   1.45452

 Mulliken charges and spin densities:
               1          2
     1  C   -0.151522   1.119501
     2  H    0.050507  -0.039834
     3  H    0.050507  -0.039834
     4  H    0.050507  -0.039834
 Sum of Mulliken charges =   0.00000   1.00000

 Dipole moment (field-independent basis, Debye):
    X=              0.0000    Y=             -0.0000    Z=              0.0000  Tot=              0.0000
 Quadrupole moment (field-independent basis, Debye-Ang):
   XX=             -7.1227   YY=             -7.1227   ZZ=             -8.7034
   XY=             -0.0000   XZ=             -0.0000   YZ=              0.0000

  Exact polarizability:  12.578   0.000  12.578  -0.000  -0.000   6.828
 Approx polarizability:  14.871  -0.000  14.871  -0.000   0.000   8.287

                      1                      2                      3
                     A2"                    E'                     E'
 Frequencies --    466.2689              1371.2355              1371.2357
 Red. masses --      1.2356                 1.1021                 1.1021
 Frc consts  --      0.1583                 1.2210                 1.2210
 IR Inten    --     67.9370                 3.0893                 3.0893

                      4                      5                      6
                     A1'                    E'                     E'
 Frequencies --   3096.9012              3289.7886              3289.7891
 Red. masses --      1.0078                 1.1183                 1.1183
 Frc consts  --      5.6950                 7.1309                 7.1309
 IR Inten    --      0.0000                 3.5285                 3.5280

 - Thermochemistry -
 -------------------
 Temperature   298.150 Kelvin.  Pressure   1.00000 Atm.
 Atom     1 has atomic number  6 and mass  12.00000

 Molecular mass:    15.02348 amu.
 Principal axes and moments of inertia in atomic units:
                           1         2         3
     Eigenvalues --     6.42787   6.42787  12.85574
           X            0.97307   0.23052   0.00000
           Y           -0.23052   0.97307   0.00000
           Z            0.00000   0.00000   1.00000
 This molecule is an oblate symmetric top.
 Rotational symmetry number  6.
 Rotational temperatures (Kelvin)     13.47473    13.47473     6.73737
 Rotational constants (GHZ):         280.76825   280.76825   140.38413
 Zero-point vibrational energy      77070.7 (Joules/Mol)
                                   18.42035 (Kcal/Mol)
 Warning -- explicit consideration of   1 degrees of freedom as
           vibrations may cause significant error
 Vibrational temperatures:    670.86  1972.90  1972.90  4455.74  4733.27
          (Kelvin)           4733.27

 Zero-point correction=                           0.029355 (Hartree/Particle)
 Thermal correction to Energy=                    0.032454
 Thermal correction to Enthalpy=                  0.033398
 Thermal correction to Gibbs Free Energy=         0.011205
 Sum of electronic and zero-point Energies=            -39.809710
 Sum of electronic and thermal Energies=               -39.806610
 Sum of electronic and thermal Enthalpies=             -39.805666
 Sum of electronic and thermal Free Energies=          -39.827860

                     E (Thermal)             CV                S
                      KCal/Mol        Cal/Mol-Kelvin    Cal/Mol-Kelvin
 Total                   20.365              7.520             46.711
 Electronic               0.000              0.000              1.377
 Translational            0.889              2.981             34.068
 Rotational               0.889              2.981             10.477
 Vibrational             18.588              1.558              0.789
 Vibration     1          0.824              1.325              0.748

 Optimization completed.
    -- Stationary point found.
 Normal termination of Gaussian 09 at Thu Sep  5 22:26:51 2019.
