 Gaussian 09, Revision E.01,
 Gaussian 09:  ES64L-G09RevE.01 30-Nov-2015

 -------------------------------------------------------------------
 #P b3lyp/6-31g* # SCF=(xqc) # Freq=() # IOp(7/33=1) # int=ultrafine
 -------------------------------------------------------------------

 --------
 comment:
 --------
 Symbolic Z-matrix:
 Charge =  0 Multiplicity = 2

                         Standard orientation:
 ---------------------------------------------------------------------
 Center     Atomic      Atomic             Coordinates (Angstroms)
 Number     Number       Type             X           Y           Z
 ---------------------------------------------------------------------
      1          6           0        0.000000    0.000000    0.000000
      2          1           0       -0.000000    1.082548    0.000000
      3          1           0       -0.937514   -0.541274    0.000000
      4          1           0        0.937514   -0.541274    0.000000
 ---------------------------------------------------------------------

 SCF Done:  E(UB3LYP) =  -39.8382918307     A.U. after   10 cycles

 The electronic state is 2-A2".
 Alpha  occ. eigenvalues --  -10.19150  -0.68127  -0.41646  -0.41646  -0.22427
 Alpha virt. eigenvalues --    0.11467   0.18209   0.18209   0.53685   0.54490
 Alpha virt. eigenvalues --    0.54490   0.68303   0.91452   0.91452   0.95819
 Alpha virt. eigenvalues --    1.65009   1.65009   2.01083   2.18697   2.18697

  Beta  occ. eigenvalues --  -10.17739  -0.64059  -0.40682  -0.40682
  Beta virt. eigenvalues --   -0.04795   0.13079   0.18760   0.18760   0.55305
  Beta virt. eigenvalues --    0.55305   0.61533   0.70966   0.91940   0.91940
  Beta virt. eigenvalues --    0.98701   1.72169   1.72169   2.09725   2.19824

 Mulliken charges and spin densities:
               1          2
     1  C   -0.487620   1.155752
     2  H    0.162540  -0.051917
     3  H    0.162540  -0.051917
     4  H    0.162540  -0.051917
 Sum of Mulliken charges =   0.00000   1.00000

 Dipole moment (field-independent basis, Debye):
    X=              0.0000    Y=              0.0000    Z=              0.0000  Tot=              0.0000
 Quadrupole moment (field-independent basis, Debye-Ang):
   XX=             -7.0056   YY=             -7.0056   ZZ=             -8.6400
   XY=             -0.0000   XZ=             -0.0000   YZ=             -0.0000

  Exact polarizability:  11.869  -0.000  11.869   0.000  -0.000   5.052
 Approx polarizability:  13.787  -0.000  13.787   0.000   0.000   5.875

                      1                      2                      3
                     A2"                    E'                     E'
 Frequencies --    451.0854              1430.7266              1430.7266
 Red. masses --      1.2356                 1.1020                 1.1020
 Frc consts  --      0.1481                 1.3290                 1.3290
 IR Inten    --     89.6995                 2.3224                 2.3225

                      4                      5                      6
                     A1'                    E'                     E'
 Frequencies --   3145.0525              3319.7753              3319.7758
 Red. masses --      1.0078                 1.1185                 1.1185
 Frc consts  --      5.8734                 7.2626                 7.2626
 IR Inten    --      0.0000                 7.4911                 7.4902

 - Thermochemistry -
 -------------------
 Temperature   298.150 Kelvin.  Pressure   1.00000 Atm.
 Atom     1 has atomic number  6 and mass  12.00000

 Molecular mass:    15.02348 amu.
 Principal axes and moments of inertia in atomic units:
                           1         2         3
     Eigenvalues --     6.32657   6.32657  12.65314
           X            0.94086   0.33881   0.00000
           Y           -0.33881   0.94086   0.00000
           Z            0.00000  -0.00000   1.00000
 This molecule is an oblate symmetric top.
 Rotational symmetry number  6.
 Rotational temperatures (Kelvin)     13.69048    13.69048     6.84524
 Rotational constants (GHZ):         285.26367   285.26367   142.63184
 Zero-point vibrational energy      78338.3 (Joules/Mol)
                                   18.72330 (Kcal/Mol)
 Warning -- explicit consideration of   1 degrees of freedom as
           vibrations may cause significant error
 Vibrational temperatures:    649.01  2058.49  2058.49  4525.02  4776.41
          (Kelvin)           4776.41

 Zero-point correction=                           0.029837 (Hartree/Particle)
 Thermal correction to Energy=                    0.032946
 Thermal correction to Enthalpy=                  0.033890
 Thermal correction to Gibbs Free Energy=         0.011702
 Sum of electronic and zero-point Energies=            -39.808454
 Sum of electronic and thermal Energies=               -39.805346
 Sum of electronic and thermal Enthalpies=             -39.804402
 Sum of electronic and thermal Free Energies=          -39.826590

                     E (Thermal)             CV                S
                      KCal/Mol        Cal/Mol-Kelvin    Cal/Mol-Kelvin
 Total                   20.674              7.511             46.699
 Electronic               0.000              0.000              1.377
 Translational            0.889              2.981             34.068
 Rotational               0.889              2.981             10.430
 Vibrational             18.896              1.549              0.824
 Vibration     1          0.810              1.358              0.793

 Optimization completed.
    -- Stationary point found.
 Normal termination of Gaussian 09 at Tue Sep 10 12:26:04 2019.
