 Gaussian 09, Revision E.01,
 Gaussian 09:  ES64L-G09RevE.01 30-Nov-2015

 -----------------------------------------------------------
 #P b3lyp/6-31g* # SCF=(xqc) # POpt=(calcfc) # int=ultrafine
 -----------------------------------------------------------

 --------
 comment:
 --------
 Symbolic Z-matrix:
 Charge =  0 Multiplicity = 2

 SCF Done:  E(UB3LYP) =  -41.0049578409     A.U. after   13 cycles

  Exact polarizability:   0.000   0.000   0.000   0.000   0.000   0.000
 Approx polarizability:  23.410  -0.028  13.754  -0.108  -0.000  13.753

 SCF Done:  E(UB3LYP) =  -41.0049581536     A.U. after    8 cycles
 Optimization completed.
    -- Stationary point found.

                         Standard orientation:
 ---------------------------------------------------------------------
 Center     Atomic      Atomic             Coordinates (Angstroms)
 Number     Number       Type             X           Y           Z
 ---------------------------------------------------------------------
      1          6           0        0.538334   -0.000006    0.000001
      2          1           0        0.569213    0.941327    0.534289
      3          1           0        0.569131   -0.007971   -1.082363
      4          1           0        0.569003   -0.933385    0.548078
      5          1           0       -2.027225    0.000039   -0.000007
      6          1           0       -2.910125    0.000028   -0.000002
 ---------------------------------------------------------------------

 The electronic state is 2-A.
 Alpha  occ. eigenvalues --  -10.19787  -0.68693  -0.42147  -0.42147  -0.40087
 Alpha  occ. eigenvalues --   -0.22875
 Alpha virt. eigenvalues --    0.08080   0.11326   0.17836   0.17836   0.53985
 Alpha virt. eigenvalues --    0.53985   0.55140   0.62359   0.78578   0.90950
 Alpha virt. eigenvalues --    0.90950   0.96137   1.12174   1.64431   1.64431

  Beta  occ. eigenvalues --  -10.18399  -0.64705  -0.41202  -0.41202  -0.39740
  Beta virt. eigenvalues --   -0.06169   0.09307   0.12950   0.18385   0.18385
  Beta virt. eigenvalues --    0.54801   0.54801   0.60565   0.64940   0.80432
  Beta virt. eigenvalues --    0.91436   0.91436   0.98682   1.12772   1.71415

 Mulliken charges and spin densities:
               1          2
     1  C   -0.486609   1.123833
     2  H    0.168439  -0.050228
     3  H    0.168439  -0.050228
     4  H    0.168440  -0.050228
     5  H    0.004620  -0.012981
     6  H   -0.023328   0.039832
 Sum of Mulliken charges =  -0.00000   1.00000

 Dipole moment (field-independent basis, Debye):
    X=              0.3783    Y=             -0.0000    Z=              0.0000  Tot=              0.3783
 Quadrupole moment (field-independent basis, Debye-Ang):
   XX=            -10.8744   YY=             -9.1704   ZZ=             -9.1704
   XY=              0.0002   XZ=             -0.0000   YZ=             -0.0000

 Normal termination of Gaussian 09 at Thu Sep  5 23:07:20 2019.
