 Gaussian 09, Revision E.01,
 Gaussian 09:  ES64L-G09RevE.01 30-Nov-2015

 ------------------------------------------------------
 #P b3lyp/cc-pvdz # SCF=(xqc) # POpt=() # int=ultrafine
 ------------------------------------------------------

 --------
 comment:
 --------
 Symbolic Z-matrix:
 Charge =  0 Multiplicity = 2

 SCF Done:  E(UB3LYP) =  -39.8389301139     A.U. after   10 cycles
 SCF Done:  E(UB3LYP) =  -39.8390643020     A.U. after    7 cycles
 Optimization completed.
    -- Stationary point found.

                         Standard orientation:
 ---------------------------------------------------------------------
 Center     Atomic      Atomic             Coordinates (Angstroms)
 Number     Number       Type             X           Y           Z
 ---------------------------------------------------------------------
      1          6           0        0.000000    0.000000    0.000000
      2          1           0        0.000000    1.091180    0.000000
      3          1           0        0.944989   -0.545590    0.000000
      4          1           0       -0.944989   -0.545590   -0.000000
 ---------------------------------------------------------------------

 The electronic state is 2-A2".
 Alpha  occ. eigenvalues --  -10.19891  -0.68171  -0.41592  -0.41592  -0.22974
 Alpha virt. eigenvalues --    0.07289   0.14168   0.14168   0.43607   0.43607
 Alpha virt. eigenvalues --    0.47346   0.48766   0.65499   0.65499   0.85497
 Alpha virt. eigenvalues --    0.96112   0.96112   1.35610   1.45125   1.45125

  Beta  occ. eigenvalues --  -10.18464  -0.64093  -0.40587  -0.40587
  Beta virt. eigenvalues --   -0.05988   0.08357   0.14582   0.14582   0.43906
  Beta virt. eigenvalues --    0.43906   0.51578   0.54796   0.66260   0.66260
  Beta virt. eigenvalues --    0.88359   0.99884   0.99884   1.35250   1.45452

 Mulliken charges and spin densities:
               1          2
     1  C   -0.151522   1.119501
     2  H    0.050507  -0.039834
     3  H    0.050507  -0.039834
     4  H    0.050507  -0.039834
 Sum of Mulliken charges =   0.00000   1.00000

 Dipole moment (field-independent basis, Debye):
    X=             -0.0000    Y=             -0.0000    Z=              0.0000  Tot=              0.0000
 Quadrupole moment (field-independent basis, Debye-Ang):
   XX=             -7.1227   YY=             -7.1227   ZZ=             -8.7034
   XY=             -0.0000   XZ=             -0.0000   YZ=             -0.0000

 Normal termination of Gaussian 09 at Fri Aug 23 16:55:54 2019.
