 Gaussian 09, Revision E.01,
 Gaussian 09:  ES64L-G09RevE.01 30-Nov-2015

 --------------------------------------------------------------------
 #P b3lyp/cc-pvdz # SCF=(xqc) # Freq=() # IOp(7/33=1) # int=ultrafine
 --------------------------------------------------------------------

 --------
 comment:
 --------
 Symbolic Z-matrix:
 Charge =  0 Multiplicity = 1

                         Standard orientation:
 ---------------------------------------------------------------------
 Center     Atomic      Atomic             Coordinates (Angstroms)
 Number     Number       Type             X           Y           Z
 ---------------------------------------------------------------------
      1          1           0        0.000000    0.000000    0.380815
      2          1           0        0.000000    0.000000   -0.380815
 ---------------------------------------------------------------------

 SCF Done:  E(RB3LYP) =  -1.17360206782     A.U. after    6 cycles

 The electronic state is 1-SGG.
 Alpha  occ. eigenvalues --   -0.42574
 Alpha virt. eigenvalues --    0.07049   0.33267   0.69501   1.04758   1.04758
 Alpha virt. eigenvalues --    1.66215   1.76426   1.76426   3.14591

 Mulliken charges:
               1
     1  H    0.000000
     2  H    0.000000
 Sum of Mulliken charges =   0.00000

 Dipole moment (field-independent basis, Debye):
    X=              0.0000    Y=             -0.0000    Z=              0.0000  Tot=              0.0000
 Quadrupole moment (field-independent basis, Debye-Ang):
   XX=             -2.0436   YY=             -2.0436   ZZ=             -1.4534
   XY=             -0.0000   XZ=             -0.0000   YZ=              0.0000

  Exact polarizability:   1.191   0.000   1.191  -0.000   0.000   6.726
 Approx polarizability:   1.270  -0.000   1.270  -0.000  -0.000   8.142

                      1
                     SGG
 Frequencies --   4369.6629
 Red. masses --      1.0078
 Frc consts  --     11.3379
 IR Inten    --      0.0000

 - Thermochemistry -
 -------------------
 Temperature   298.150 Kelvin.  Pressure   1.00000 Atm.
 Atom     1 has atomic number  1 and mass   1.00783

 Molecular mass:     2.01565 amu.
 Principal axes and moments of inertia in atomic units:
                           1         2         3
     Eigenvalues --     0.00000   1.04386   1.04386
           X           -0.00000   1.00000  -0.00000
           Y            0.00000   0.00000   1.00000
           Z            1.00000   0.00000  -0.00000
 This molecule is a prolate symmetric top.
 Rotational symmetry number  2.
 Rotational temperature (Kelvin)     82.97480
 Rotational constant (GHZ):        1728.916281
 Zero-point vibrational energy      26136.4 (Joules/Mol)
                                    6.24675 (Kcal/Mol)
 Vibrational temperatures:   6286.96
          (Kelvin)

 Zero-point correction=                           0.009955 (Hartree/Particle)
 Thermal correction to Energy=                    0.012315
 Thermal correction to Enthalpy=                  0.013259
 Thermal correction to Gibbs Free Energy=        -0.001580
 Sum of electronic and zero-point Energies=             -1.163647
 Sum of electronic and thermal Energies=                -1.161287
 Sum of electronic and thermal Enthalpies=              -1.160343
 Sum of electronic and thermal Free Energies=           -1.175182

                     E (Thermal)             CV                S
                      KCal/Mol        Cal/Mol-Kelvin    Cal/Mol-Kelvin
 Total                    7.728              4.968             31.232
 Electronic               0.000              0.000              0.000
 Translational            0.889              2.981             28.080
 Rotational               0.592              1.987              3.152
 Vibrational              6.247              0.000              0.000

 Optimization completed.
    -- Stationary point found.
 Normal termination of Gaussian 09 at Fri Aug 23 16:56:02 2019.
