                               Psi4 1.3.2 release

  ==> Input File <==

--------------------------------------------------------------------------
#!
memory 1 GB

molecule {

0 2
C    0.000000   0.000000   0.000000
H    0.000000   0.000000   1.082548
H    0.000000   0.937514  -0.541274
H    0.000000  -0.937514  -0.541274
}
set basis 6-31g*
set scf_type pk
set reference uks
set mp2_type conv
_, wfn = frequency('B3LYP', return_wfn=True)
hess = wfn.hessian()
hess.name = 'Hessian'
hess.print_out()
--------------------------------------------------------------------------

    Molecular point group: c2v
  Charge       = 0
  Multiplicity = 2
  Basis Set: 6-31G*
    Blend: 6-31G*
  @UKS Final Energy:   -39.83829181070004
    Total Energy =                        -39.8382918107000350
    Molecular point group: c2v
  Basis Set: 6-31G*
    Blend: 6-31G*
  Basis Set: 6-31G*
    Blend: 6-31G*
  @UKS Final Energy:   -39.83829181070003
    Total Energy =                        -39.8382918107000279
  Basis Set: 6-31G*
    Blend: 6-31G*
  Basis Set: 6-31G*
    Blend: 6-31G*
  @UKS Final Energy:   -39.83828857833637
    Total Energy =                        -39.8382885783363605
  Basis Set: 6-31G*
    Blend: 6-31G*
  Basis Set: 6-31G*
    Blend: 6-31G*
  @UKS Final Energy:   -39.83828855056201
    Total Energy =                        -39.8382885505620123
  Basis Set: 6-31G*
    Blend: 6-31G*
  @UKS Final Energy:   -39.83828713316267
    Total Energy =                        -39.8382871331626660
  @UKS Final Energy:   -39.83828887364620
    Total Energy =                        -39.8382888736462064
  @UKS Final Energy:   -39.83828713244736
    Total Energy =                        -39.8382871324473555
  Basis Set: 6-31G*
    Blend: 6-31G*
  @UKS Final Energy:   -39.83828887458434
    Total Energy =                        -39.8382888745843431
  Basis Set: 6-31G*
    Blend: 6-31G*
  Basis Set: 6-31G*
    Blend: 6-31G*
  @UKS Final Energy:   -39.83829171463805
    Total Energy =                        -39.8382917146380535
  Basis Set: 6-31G*
    Blend: 6-31G*
  Basis Set: 6-31G*
    Blend: 6-31G*
  @UKS Final Energy:   -39.83828856456560
    Total Energy =                        -39.8382885645656089
  Basis Set: 6-31G*
    Blend: 6-31G*
    Molecular point group: cs
  Charge       = 0
  Multiplicity = 2
  Basis Set: 6-31G*
    Blend: 6-31G*

    Orbital Energies [Eh]
    ---------------------

    Alpha Occupied:

       1Ap   -10.191498     2Ap    -0.681268     3Ap    -0.416466
       4Ap    -0.416447     1App   -0.224269

    Alpha Virtual:

       5Ap     0.114666     6Ap     0.181960     7Ap     0.182231
       2App    0.536852     8Ap     0.544342     9Ap     0.545459
      10Ap     0.683035    11Ap     0.914121    12Ap     0.914906
      13Ap     0.958216     3App    1.650062     4App    1.650118
      14Ap     2.010825    15Ap     2.185063    16Ap     2.188878
      17Ap     4.066661

    Beta Occupied:

       1Ap   -10.177393     2Ap    -0.640596     3Ap    -0.406838
       4Ap    -0.406793

    Beta Virtual:

       1App   -0.047949     5Ap     0.130784     6Ap     0.187474
       7Ap     0.187737     8Ap     0.552481     9Ap     0.553620
       2App    0.615330    10Ap     0.709659    11Ap     0.918984
      12Ap     0.919806    13Ap     0.987021     3App    1.721656
       4App    1.721727    14Ap     2.097247    15Ap     2.196329
      16Ap     2.200149    17Ap     4.104512

    Final Occupation by Irrep:
             Ap   App
    DOCC [     4,    0 ]
    SOCC [     0,    1 ]

  @UKS Final Energy:   -39.83828924877865

   => Energetics <=

    Nuclear Repulsion Energy =              9.6455373323566249
    One-Electron Energy =                 -71.6225068261727813
    Two-Electron Energy =                  27.3936117688565908
    DFT Exchange-Correlation Energy =      -5.2549315238190788
    Empirical Dispersion Energy =           0.0000000000000000
    VV10 Nonlocal Energy =                  0.0000000000000000
    Total Energy =                        -39.8382892487786506

  UHF NO Occupations:
  HONO-2 :    3 Ap 1.9997149
  HONO-1 :    4 Ap 1.9986876
  HONO-0 :    1App 1.0000000
  LUNO+0 :    5 Ap 0.0013124
  LUNO+1 :    6 Ap 0.0002851
  LUNO+2 :    7 Ap 0.0002841
  LUNO+3 :    8 Ap 0.0000004

Computation Completed

Properties will be evaluated at   0.000000,   0.000000,   0.000000 [a0]

Properties computed using the SCF density matrix

  Nuclear Dipole Moment: [e a0]
     X:     0.0000      Y:     0.0000      Z:     0.0000

  Electronic Dipole Moment: [e a0]
     X:     0.0000      Y:    -0.0005      Z:     0.0000

  Dipole Moment: [e a0]
     X:     0.0000      Y:    -0.0005      Z:     0.0000     Total:     0.0005

  Dipole Moment: [D]
     X:     0.0000      Y:    -0.0012      Z:     0.0000     Total:     0.0012

*** tstop() called on blueslogin2 at Fri Aug 23 15:32:54 2019
Module time:
	user time   =       3.10 seconds =       0.05 minutes
	system time =       0.08 seconds =       0.00 minutes
	total time  =          4 seconds =       0.07 minutes
Total time:
	user time   =      40.49 seconds =       0.67 minutes
	system time =       1.43 seconds =       0.02 minutes
	total time  =         46 seconds =       0.77 minutes

*** tstart() called on blueslogin2
*** at Fri Aug 23 15:32:54 2019

         ------------------------------------------------------------
                                   SCF GRAD
                          Rob Parrish, Justin Turney,
                       Andy Simmonett, and Alex Sokolov
         ------------------------------------------------------------

  ==> Geometry <==

    Molecular point group: cs
    Full point group: Cs

    Geometry (in Angstrom), charge = 0, multiplicity = 2:

       Center              X                  Y                   Z               Mass
    ------------   -----------------  -----------------  -----------------  -----------------
         C            0.000000000000    -0.000000000000     0.000000000000    12.000000000000
         H            0.000000000000    -0.001521661047     1.082548000000     1.007825032230
         H            0.000000000000     0.938274830523    -0.542591797219     1.007825032230
         H            0.000000000000    -0.936753169477    -0.539956202781     1.007825032230

  Nuclear repulsion =    9.645537332356625

  ==> Basis Set <==

  Basis Set: 6-31G*
    Blend: 6-31G*
    Number of shells: 12
    Number of basis function: 21
    Number of Cartesian functions: 21
    Spherical Harmonics?: false
    Max angular momentum: 2

  ==> DirectJKGrad: Integral-Direct SCF Gradients <==

    Gradient:                    1
    J tasked:                  Yes
    K tasked:                  Yes
    wK tasked:                  No
    Integrals threads:           1
    Schwarz Cutoff:          0E+00

  ==> DFT Potential <==

   => Composite Functional: B3LYP <=

    B3LYP Hyb-GGA Exchange-Correlation Functional

    P. J. Stephens, F. J. Devlin, C. F. Chabalowski, and M. J. Frisch, J. Phys. Chem. 98, 11623 (1994)

    Deriv               =              1
    GGA                 =           TRUE
    Meta                =          FALSE

    Exchange Hybrid     =           TRUE
    MP2 Hybrid          =          FALSE

   => Exchange Functionals <=

    0.0800   Slater exchange
    0.7200         Becke 88

   => Exact (HF) Exchange <=

    0.2000               HF

   => Correlation Functionals <=

    0.1900   Vosko, Wilk & Nusair (VWN5_RPA)
    0.8100   Lee, Yang & Parr

   => Molecular Quadrature <=

    Radial Scheme          =       TREUTLER
    Pruning Scheme         =           FLAT
    Nuclear Scheme         =       TREUTLER

    BS radius alpha        =              1
    Pruning alpha          =              1
    Radial Points          =             75
    Spherical Points       =            302
    Total Points           =          87800
    Total Blocks           =            721
    Max Points             =            256
    Max Functions          =             21

  -Total Gradient:
     Atom            X                  Y                   Z
    ------   -----------------  -----------------  -----------------
       1        0.000000000000    -0.001315829204     0.000003232143
       2        0.000000000000    -0.000241945450    -0.000140218139
       3        0.000000000000     0.000653496682    -0.000517249430
       4        0.000000000000     0.000904316846     0.000661502549

*** tstop() called on blueslogin2 at Fri Aug 23 15:32:54 2019
Module time:
	user time   =       0.53 seconds =       0.01 minutes
	system time =       0.01 seconds =       0.00 minutes
	total time  =          0 seconds =       0.00 minutes
Total time:
	user time   =      41.02 seconds =       0.68 minutes
	system time =       1.44 seconds =       0.02 minutes
	total time  =         46 seconds =       0.77 minutes

         ----------------------------------------------------------
                                   FINDIF
                     R. A. King and Jonathon Misiewicz
         ---------------------------------------------------------

  Computing second-derivative from gradients using projected,
  symmetry-adapted, cartesian coordinates.

  10 gradients passed in, including the reference geometry.
  Generating complete list of displacements from unique ones.

    Operation 2 takes plus displacements of irrep B1 to minus ones.
    Operation 2 takes plus displacements of irrep B2 to minus ones.

-------------------------------------------------------------

  ==> Harmonic Vibrational Analysis <==

  non-mass-weighted Hessian:       Symmetric? True   Hermitian? True   Lin Dep Dim?  6 (0)
  projection of translations (True) and rotations (True) removed 6 degrees of freedom (6)
  total projector:                 Symmetric? True   Hermitian? True   Lin Dep Dim?  6 (6)
  mass-weighted Hessian:           Symmetric? True   Hermitian? True   Lin Dep Dim?  6 (0)
  pre-proj  low-frequency mode:    0.0000i [cm^-1]
  pre-proj  low-frequency mode:    0.0000i [cm^-1]
  pre-proj  low-frequency mode:    0.0000i [cm^-1]
  pre-proj  low-frequency mode:    0.0000i [cm^-1]
  pre-proj  low-frequency mode:    0.0000  [cm^-1]
  pre-proj  low-frequency mode:    0.0001  [cm^-1]
  pre-proj  all modes:['0.0000i' '0.0000i' '0.0000i' '0.0000i' '0.0000' '0.0001' '450.8454'
 '1430.6813' '1430.7160' '3145.0884' '3319.7828' '3319.8036']
  projected mass-weighted Hessian: Symmetric? True   Hermitian? True   Lin Dep Dim?  6 (6)
  post-proj low-frequency mode:    0.0000i [cm^-1] (TR)
  post-proj low-frequency mode:    0.0000i [cm^-1] (TR)
  post-proj low-frequency mode:    0.0000i [cm^-1] (TR)
  post-proj low-frequency mode:    0.0000  [cm^-1] (TR)
  post-proj low-frequency mode:    0.0001  [cm^-1] (TR)
  post-proj low-frequency mode:    0.0001  [cm^-1] (TR)
  post-proj  all modes:['0.0000i' '0.0000i' '0.0000i' '0.0000' '0.0001' '0.0001' '450.8454'
 '1430.6813' '1430.7160' '3145.0884' '3319.7828' '3319.8036']

  Vibration                       7                   8                   9
  Freq [cm^-1]                 450.8454           1430.6813           1430.7160
  Irrep                           B1                  B2                  A1
  Reduced mass [u]              1.2356              1.1020              1.1020
  Force const [mDyne/A]         0.1480              1.3289              1.3290
  Turning point v=0 [a0]        0.4649              0.2763              0.2763
  RMS dev v=0 [a0 u^1/2]        0.3654              0.2051              0.2051
  Char temp [K]                648.6662           2058.4318           2058.4818
  ----------------------------------------------------------------------------------
      1   C               -0.14  0.00  0.00   -0.00 -0.09  0.00    0.00 -0.00 -0.09
      2   H                0.57  0.00 -0.00    0.00  0.81  0.00   -0.00  0.00 -0.07
      3   H                0.57  0.00  0.00    0.00  0.15  0.38   -0.00  0.38  0.59
      4   H                0.57  0.00 -0.00   -0.00  0.15 -0.38    0.00 -0.38  0.59

  Vibration                       10                  11                  12
  Freq [cm^-1]                3145.0884           3319.7828           3319.8036
  Irrep                           A1                  B2                  A1
  Reduced mass [u]              1.0078              1.1185              1.1185
  Force const [mDyne/A]         5.8736              7.2626              7.2627
  Turning point v=0 [a0]        0.1949              0.1801              0.1801
  RMS dev v=0 [a0 u^1/2]        0.1384              0.1347              0.1347
  Char temp [K]               4525.0820           4776.4283           4776.4583
  ----------------------------------------------------------------------------------
      1   C               -0.00  0.00  0.00   -0.00 -0.10 -0.00    0.00  0.00 -0.10
      2   H               -0.00  0.00  0.58    0.00 -0.02  0.00    0.00  0.00  0.81
      3   H                0.00  0.50 -0.29   -0.00  0.61 -0.36   -0.00 -0.36  0.19
      4   H                0.00 -0.50 -0.29   -0.00  0.61  0.36    0.00  0.36  0.19

  ==> Thermochemistry Components <==

  Entropy, S
    Electronic S            1.377 [cal/(mol K)]        5.763 [J/(mol K)]       0.00219507 [mEh/K] (multiplicity = 2)
    Translational S        34.068 [cal/(mol K)]      142.539 [J/(mol K)]       0.05429035 [mEh/K] (mol. weight = 15.0235 [u], P = 101325.00 [Pa])
    Rotational S           12.613 [cal/(mol K)]       52.773 [J/(mol K)]       0.02010017 [mEh/K] (symmetry no. = 2)
    Vibrational S           0.825 [cal/(mol K)]        3.451 [J/(mol K)]       0.00131439 [mEh/K]
  Total S                  48.883 [cal/(mol K)]      204.526 [J/(mol K)]       0.07789997 [mEh/K]
  Correction S              0.000 [cal/(mol K)]        0.000 [J/(mol K)]       0.00000000 [mEh/K]

  Constant volume heat capacity, Cv
    Electronic Cv           0.000 [cal/(mol K)]        0.000 [J/(mol K)]       0.00000000 [mEh/K]
    Translational Cv        2.981 [cal/(mol K)]       12.472 [J/(mol K)]       0.00475022 [mEh/K]
    Rotational Cv           2.981 [cal/(mol K)]       12.472 [J/(mol K)]       0.00475022 [mEh/K]
    Vibrational Cv          1.550 [cal/(mol K)]        6.484 [J/(mol K)]       0.00246972 [mEh/K]
  Total Cv                  7.511 [cal/(mol K)]       31.428 [J/(mol K)]       0.01197015 [mEh/K]
  Correction Cv             0.000 [cal/(mol K)]        0.000 [J/(mol K)]       0.00000000 [mEh/K]

  Constant pressure heat capacity, Cp
    Electronic Cp           0.000 [cal/(mol K)]        0.000 [J/(mol K)]       0.00000000 [mEh/K]
    Translational Cp        4.968 [cal/(mol K)]       20.786 [J/(mol K)]       0.00791703 [mEh/K]
    Rotational Cp           2.981 [cal/(mol K)]       12.472 [J/(mol K)]       0.00475022 [mEh/K]
    Vibrational Cp          1.550 [cal/(mol K)]        6.484 [J/(mol K)]       0.00246972 [mEh/K]
  Total Cp                  9.499 [cal/(mol K)]       39.742 [J/(mol K)]       0.01513696 [mEh/K]
  Correction Cp             0.000 [cal/(mol K)]        0.000 [J/(mol K)]       0.00000000 [mEh/K]

  ==> Thermochemistry Energy Analysis <==

  Raw electronic energy, E0
  Total E0, Electronic energy at well bottom at 0 [K]                  -39.83829181 [Eh]

  Zero-point energy, ZPE_vib = Sum_i nu_i / 2
    Electronic ZPE          0.000 [kcal/mol]        0.000 [kJ/mol]       0.00000000 [Eh]
    Translational ZPE       0.000 [kcal/mol]        0.000 [kJ/mol]       0.00000000 [Eh]
    Rotational ZPE          0.000 [kcal/mol]        0.000 [kJ/mol]       0.00000000 [Eh]
    Vibrational ZPE        18.723 [kcal/mol]       78.337 [kJ/mol]       0.02983697 [Eh]        6548.459 [cm^-1]
  Correction ZPE           18.723 [kcal/mol]       78.337 [kJ/mol]       0.02983697 [Eh]        6548.459 [cm^-1]
  Total ZPE, Electronic energy at 0 [K]                                -39.80845484 [Eh]

  Thermal Energy, E (includes ZPE)
    Electronic E            0.000 [kcal/mol]        0.000 [kJ/mol]       0.00000000 [Eh]
    Translational E         0.889 [kcal/mol]        3.718 [kJ/mol]       0.00141628 [Eh]
    Rotational E            0.889 [kcal/mol]        3.718 [kJ/mol]       0.00141628 [Eh]
    Vibrational E          18.896 [kcal/mol]       79.062 [kJ/mol]       0.03011318 [Eh]
  Correction E             20.674 [kcal/mol]       86.499 [kJ/mol]       0.03294573 [Eh]
  Total E, Electronic energy at  298.15 [K]                            -39.80534608 [Eh]

  Enthalpy, H_trans = E_trans + k_B * T
    Electronic H            0.000 [kcal/mol]        0.000 [kJ/mol]       0.00000000 [Eh]
    Translational H         1.481 [kcal/mol]        6.197 [kJ/mol]       0.00236046 [Eh]
    Rotational H            0.889 [kcal/mol]        3.718 [kJ/mol]       0.00141628 [Eh]
    Vibrational H          18.896 [kcal/mol]       79.062 [kJ/mol]       0.03011318 [Eh]
  Correction H             21.266 [kcal/mol]       88.978 [kJ/mol]       0.03388991 [Eh]
  Total H, Enthalpy at  298.15 [K]                                     -39.80440190 [Eh]

  Gibbs free energy, G = H - T * S
    Electronic G           -0.411 [kcal/mol]       -1.718 [kJ/mol]      -0.00065446 [Eh]
    Translational G        -8.676 [kcal/mol]      -36.301 [kJ/mol]      -0.01382621 [Eh]
    Rotational G           -2.872 [kcal/mol]      -12.016 [kJ/mol]      -0.00457659 [Eh]
    Vibrational G          18.650 [kcal/mol]       78.033 [kJ/mol]       0.02972129 [Eh]
  Correction G              6.692 [kcal/mol]       27.998 [kJ/mol]       0.01066404 [Eh]
  Total G, Free enthalpy at  298.15 [K]                                -39.82762777 [Eh]
  ## Hessian (Symmetry 0) ##
  Irrep: 1 Size: 12 x 12

                 1                   2                   3                   4                   5

    1     0.01857650458369     0.00000000000000     0.00000000000000    -0.00619216819456     0.00000000000000
    2     0.00000000000000     0.62716518975406     0.00000000000000     0.00000000000000    -0.05651754304892
    3     0.00000000000000     0.00000000000000     0.62717440276105     0.00000000000000     0.00000000000000
    4    -0.00619216819456     0.00000000000000     0.00000000000000     0.00206405606485     0.00000000000000
    5     0.00000000000000    -0.05651754304892     0.00000000000000     0.00000000000000     0.04688455121951
    6     0.00000000000000     0.00000000000000    -0.36159924714305     0.00000000000000     0.00000000000000
    7    -0.00619216819456     0.00000000000000     0.00000000000000     0.00206405606485     0.00000000000000
    8     0.00000000000000    -0.28532382335257     0.13209948729378     0.00000000000000     0.00481649591470
    9     0.00000000000000     0.13210137722219    -0.13278757780900     0.00000000000000     0.02428800483732
   10    -0.00619216819456     0.00000000000000     0.00000000000000     0.00206405606485     0.00000000000000
   11     0.00000000000000    -0.28532382335257    -0.13209948729378     0.00000000000000     0.00481649591470
   12     0.00000000000000    -0.13210137722219    -0.13278757780900     0.00000000000000    -0.02428800483732

                 6                   7                   8                   9                  10

    1     0.00000000000000    -0.00619216819456     0.00000000000000     0.00000000000000    -0.00619216819456
    2     0.00000000000000     0.00000000000000    -0.28532382335257     0.13210137722219     0.00000000000000
    3    -0.36159924714305     0.00000000000000     0.13209948729378    -0.13278757780900     0.00000000000000
    4     0.00000000000000     0.00206405606485     0.00000000000000     0.00000000000000     0.00206405606485
    5     0.00000000000000     0.00000000000000     0.00481649591470     0.02428800483732     0.00000000000000
    6     0.37602694284122     0.00000000000000    -0.00345049765713    -0.00721384784909     0.00000000000000
    7     0.00000000000000     0.00206405606485     0.00000000000000     0.00000000000000     0.00206405606485
    8    -0.00345049765713     0.00000000000000     0.29373864823435    -0.14251918584808     0.00000000000000
    9    -0.00721384784909     0.00000000000000    -0.14251918584808     0.12916912921830     0.00000000000000
   10     0.00000000000000     0.00206405606485     0.00000000000000     0.00000000000000     0.00206405606485
   11     0.00345049765713     0.00000000000000    -0.01323132079648    -0.01387019621143     0.00000000000000
   12    -0.00721384784909     0.00000000000000     0.01387019621143     0.01083229643979     0.00000000000000

                11                  12

    1     0.00000000000000     0.00000000000000
    2    -0.28532382335257    -0.13210137722219
    3    -0.13209948729378    -0.13278757780900
    4     0.00000000000000     0.00000000000000
    5     0.00481649591470    -0.02428800483732
    6     0.00345049765713    -0.00721384784909
    7     0.00000000000000     0.00000000000000
    8    -0.01323132079648     0.01387019621143
    9    -0.01387019621143     0.01083229643979
   10     0.00000000000000     0.00000000000000
   11     0.29373864823435     0.14251918584808
   12     0.14251918584808     0.12916912921830

    Psi4 stopped on: Friday, 23 August 2019 03:32PM
    Psi4 wall time for execution: 0:00:46.59

*** Psi4 exiting successfully. Buy a developer a beer!
