                               Psi4 1.3.2 release

  ==> Input File <==

--------------------------------------------------------------------------
#!
memory 1 GB

molecule {

0 1
C    0.000000  -0.000001   0.000000
H    0.000000   1.100141   0.000000
H   -0.518614  -0.366711   0.898261
H   -0.518614  -0.366711  -0.898261
H    1.037223  -0.366713   0.000000
}
set basis cc-pvdz
set scf_type pk
set reference rks
set mp2_type conv
_, wfn = frequency('B3LYP', return_wfn=True)
hess = wfn.hessian()
hess.name = 'Hessian'
hess.print_out()
--------------------------------------------------------------------------

    Molecular point group: cs
  Charge       = 0
  Multiplicity = 1
  Basis Set: CC-PVDZ
    Blend: CC-PVDZ
  @RKS Final Energy:   -40.51634844240554
    Total Energy =                        -40.5163484424055369
    Molecular point group: cs
  Basis Set: CC-PVDZ
    Blend: CC-PVDZ
  Basis Set: CC-PVDZ
    Blend: CC-PVDZ
  @RKS Final Energy:   -40.51634844240556
    Total Energy =                        -40.5163484424055582
  Basis Set: CC-PVDZ
    Blend: CC-PVDZ
  Basis Set: CC-PVDZ
    Blend: CC-PVDZ
  @RKS Final Energy:   -40.51634628988113
    Total Energy =                        -40.5163462898811275
  Basis Set: CC-PVDZ
    Blend: CC-PVDZ
  Basis Set: CC-PVDZ
    Blend: CC-PVDZ
  @RKS Final Energy:   -40.51634626261627
    Total Energy =                        -40.5163462626162669
  Basis Set: CC-PVDZ
    Blend: CC-PVDZ
  @RKS Final Energy:   -40.51634605602104
    Total Energy =                        -40.5163460560210353
  @RKS Final Energy:   -40.51634605937528
    Total Energy =                        -40.5163460593752802
  @RKS Final Energy:   -40.51634764162323
    Total Energy =                        -40.5163476416232342
  @RKS Final Energy:   -40.51634763203450
    Total Energy =                        -40.5163476320344955
  @RKS Final Energy:   -40.51634589367504
    Total Energy =                        -40.5163458936750303
  @RKS Final Energy:   -40.51634423362962
    Total Energy =                        -40.5163442336296171
  @RKS Final Energy:   -40.51634458967855
    Total Energy =                        -40.5163445896785532
  @RKS Final Energy:   -40.51634625245372
    Total Energy =                        -40.5163462524537152
  @RKS Final Energy:   -40.51634601458791
    Total Energy =                        -40.5163460145879029
  Basis Set: CC-PVDZ
    Blend: CC-PVDZ
  @RKS Final Energy:   -40.51634436072419
    Total Energy =                        -40.5163443607241973
  Basis Set: CC-PVDZ
    Blend: CC-PVDZ
  Basis Set: CC-PVDZ
    Blend: CC-PVDZ
  @RKS Final Energy:   -40.51634619973571
    Total Energy =                        -40.5163461997357146
  Basis Set: CC-PVDZ
    Blend: CC-PVDZ
  Basis Set: CC-PVDZ
    Blend: CC-PVDZ
  @RKS Final Energy:   -40.51634734751106
    Total Energy =                        -40.5163473475110578
  Basis Set: CC-PVDZ
    Blend: CC-PVDZ
    Molecular point group: c1
  Charge       = 0
  Multiplicity = 1
  Basis Set: CC-PVDZ
    Blend: CC-PVDZ

    Orbital Energies [Eh]
    ---------------------

    Doubly Occupied:

       1A    -10.174732     2A     -0.690217     3A     -0.388655
       4A     -0.388423     5A     -0.388189

  @RKS Final Energy:   -40.51634691339206

   => Energetics <=

    Nuclear Repulsion Energy =             13.3115463434339159
    One-Electron Energy =                 -79.5829069328495393
    Two-Electron Energy =                  31.3332375455029855
    DFT Exchange-Correlation Energy =      -5.5782238694794204
    Empirical Dispersion Energy =           0.0000000000000000
    VV10 Nonlocal Energy =                  0.0000000000000000
    Total Energy =                        -40.5163469133920628

  Dipole Moment: [D]
     X:    -0.0000      Y:     0.0000      Z:    -0.0019     Total:     0.0019

    Molecular point group: c1

    Geometry (in Angstrom), charge = 0, multiplicity = 1:

       Center              X                  Y                   Z               Mass
    ------------   -----------------  -----------------  -----------------  -----------------
         C            0.000000314330    -0.000000628661    -0.000000000000    12.000000000000
         H            0.000000314330     1.100141371339    -0.000000000000     1.007825032230
         H           -0.519931484242    -0.366710626967     0.899021829742     1.007825032230
         H           -0.517295887097    -0.366710630355    -0.897500170258     1.007825032230
         H            1.037223314330    -0.366712628661    -0.001521659484     1.007825032230

  Basis Set: CC-PVDZ
    Blend: CC-PVDZ

  -Total Gradient:
     Atom            X                  Y                   Z
    ------   -----------------  -----------------  -----------------
       1       -0.000003788264    -0.000003274217    -0.001060153862
       2        0.000000170644     0.000146427752     0.000016475681
       3       -0.000577493328    -0.000249945046     0.000758938500
       4        0.000441974091     0.000156006267     0.000525453175
       5        0.000137327957    -0.000048729419    -0.000240668355

  Vibration                       7                   8                   9
  Freq [cm^-1]                1310.3362           1310.3629           1310.3866
  Irrep                           Ap                 App                  Ap
  Reduced mass [u]              1.1791              1.1791              1.1791
  Force const [mDyne/A]         1.1928              1.1928              1.1929

  Vibration                       10                  11                  12
  Freq [cm^-1]                1531.2298           1531.2427           3025.2899
  Irrep                          App                  Ap                  Ap
  Reduced mass [u]              1.0078              1.0078              1.0078
  Force const [mDyne/A]         1.3922              1.3923              5.4346

  Vibration                       13                  14                  15
  Freq [cm^-1]                3146.7209           3146.7272           3146.7366
  Irrep                          App                  Ap                  Ap
  Reduced mass [u]              1.1016              1.1016              1.1016
  Force const [mDyne/A]         6.4266              6.4266              6.4266

  ==> Thermochemistry Components <==

  Entropy, S
    Electronic S            0.000 [cal/(mol K)]        0.000 [J/(mol K)]       0.00000000 [mEh/K] (multiplicity = 1)
    Translational S        34.261 [cal/(mol K)]      143.349 [J/(mol K)]       0.05459877 [mEh/K] (mol. weight = 16.0313 [u], P = 101325.00 [Pa])
    Rotational S           15.113 [cal/(mol K)]       63.232 [J/(mol K)]       0.02408396 [mEh/K] (symmetry no. = 1)
    Vibrational S           0.099 [cal/(mol K)]        0.415 [J/(mol K)]       0.00015793 [mEh/K]
  Total S                  49.473 [cal/(mol K)]      206.996 [J/(mol K)]       0.07884066 [mEh/K]
  Correction S              0.000 [cal/(mol K)]        0.000 [J/(mol K)]       0.00000000 [mEh/K]

  Constant volume heat capacity, Cv
    Electronic Cv           0.000 [cal/(mol K)]        0.000 [J/(mol K)]       0.00000000 [mEh/K]
    Translational Cv        2.981 [cal/(mol K)]       12.472 [J/(mol K)]       0.00475022 [mEh/K]
    Rotational Cv           2.981 [cal/(mol K)]       12.472 [J/(mol K)]       0.00475022 [mEh/K]
    Vibrational Cv          0.564 [cal/(mol K)]        2.360 [J/(mol K)]       0.00089869 [mEh/K]
  Total Cv                  6.526 [cal/(mol K)]       27.303 [J/(mol K)]       0.01039912 [mEh/K]
  Correction Cv             0.000 [cal/(mol K)]        0.000 [J/(mol K)]       0.00000000 [mEh/K]

  Constant pressure heat capacity, Cp
    Electronic Cp           0.000 [cal/(mol K)]        0.000 [J/(mol K)]       0.00000000 [mEh/K]
    Translational Cp        4.968 [cal/(mol K)]       20.786 [J/(mol K)]       0.00791703 [mEh/K]
    Rotational Cp           2.981 [cal/(mol K)]       12.472 [J/(mol K)]       0.00475022 [mEh/K]
    Vibrational Cp          0.564 [cal/(mol K)]        2.360 [J/(mol K)]       0.00089869 [mEh/K]
  Total Cp                  8.513 [cal/(mol K)]       35.617 [J/(mol K)]       0.01356593 [mEh/K]
  Correction Cp             0.000 [cal/(mol K)]        0.000 [J/(mol K)]       0.00000000 [mEh/K]

  ==> Thermochemistry Energy Analysis <==

  Raw electronic energy, E0
  Total E0, Electronic energy at well bottom at 0 [K]                  -40.51634844 [Eh]

  Zero-point energy, ZPE_vib = Sum_i nu_i / 2
    Electronic ZPE          0.000 [kcal/mol]        0.000 [kJ/mol]       0.00000000 [Eh]
    Translational ZPE       0.000 [kcal/mol]        0.000 [kJ/mol]       0.00000000 [Eh]
    Rotational ZPE          0.000 [kcal/mol]        0.000 [kJ/mol]       0.00000000 [Eh]
    Vibrational ZPE        27.818 [kcal/mol]      116.391 [kJ/mol]       0.04433094 [Eh]        9729.516 [cm^-1]
  Correction ZPE           27.818 [kcal/mol]      116.391 [kJ/mol]       0.04433094 [Eh]        9729.516 [cm^-1]
  Total ZPE, Electronic energy at 0 [K]                                -40.47201750 [Eh]

  Thermal Energy, E (includes ZPE)
    Electronic E            0.000 [kcal/mol]        0.000 [kJ/mol]       0.00000000 [Eh]
    Translational E         0.889 [kcal/mol]        3.718 [kJ/mol]       0.00141628 [Eh]
    Rotational E            0.889 [kcal/mol]        3.718 [kJ/mol]       0.00141628 [Eh]
    Vibrational E          27.844 [kcal/mol]      116.498 [kJ/mol]       0.04437177 [Eh]
  Correction E             29.621 [kcal/mol]      123.935 [kJ/mol]       0.04720432 [Eh]
  Total E, Electronic energy at  298.15 [K]                            -40.46914412 [Eh]

  Enthalpy, H_trans = E_trans + k_B * T
    Electronic H            0.000 [kcal/mol]        0.000 [kJ/mol]       0.00000000 [Eh]
    Translational H         1.481 [kcal/mol]        6.197 [kJ/mol]       0.00236046 [Eh]
    Rotational H            0.889 [kcal/mol]        3.718 [kJ/mol]       0.00141628 [Eh]
    Vibrational H          27.844 [kcal/mol]      116.498 [kJ/mol]       0.04437177 [Eh]
  Correction H             30.214 [kcal/mol]      126.414 [kJ/mol]       0.04814851 [Eh]
  Total H, Enthalpy at  298.15 [K]                                     -40.46819993 [Eh]

  Gibbs free energy, G = H - T * S
    Electronic G            0.000 [kcal/mol]        0.000 [kJ/mol]       0.00000000 [Eh]
    Translational G        -8.734 [kcal/mol]      -36.542 [kJ/mol]      -0.01391816 [Eh]
    Rotational G           -3.617 [kcal/mol]      -15.134 [kJ/mol]      -0.00576436 [Eh]
    Vibrational G          27.814 [kcal/mol]      116.374 [kJ/mol]       0.04432468 [Eh]
  Correction G             15.463 [kcal/mol]       64.698 [kJ/mol]       0.02464217 [Eh]
  Total G, Free enthalpy at  298.15 [K]                                -40.49170628 [Eh]

*** Psi4 exiting successfully. Buy a developer a beer!
