                               Psi4 1.3.2 release

  ==> Input File <==

--------------------------------------------------------------------------
#!
memory 1 GB

molecule {

0 1
C    0.000000  -0.000000   0.000000
H    0.000000   1.093298   0.000000
H   -0.515388  -0.364429   0.892673
H   -0.515388  -0.364429  -0.892673
H    1.030770  -0.364434   0.000000
}
set basis 6-31g*
set scf_type pk
set reference rks
set mp2_type conv
_, wfn = frequency('B3LYP', return_wfn=True)
hess = wfn.hessian()
hess.name = 'Hessian'
hess.print_out()
--------------------------------------------------------------------------

    Molecular point group: cs
  Charge       = 0
  Multiplicity = 1
  Basis Set: 6-31G*
    Blend: 6-31G*
  @RKS Final Energy:   -40.51838345524924
    Total Energy =                        -40.5183834552492286
    Molecular point group: cs
  Basis Set: 6-31G*
    Blend: 6-31G*
  Basis Set: 6-31G*
    Blend: 6-31G*
  @RKS Final Energy:   -40.51838345524931
    Total Energy =                        -40.5183834552493138
  Basis Set: 6-31G*
    Blend: 6-31G*
  Basis Set: 6-31G*
    Blend: 6-31G*
  @RKS Final Energy:   -40.51838084058215
    Total Energy =                        -40.5183808405821608
  Basis Set: 6-31G*
    Blend: 6-31G*
  Basis Set: 6-31G*
    Blend: 6-31G*
  @RKS Final Energy:   -40.51838079922581
    Total Energy =                        -40.5183807992258096
  Basis Set: 6-31G*
    Blend: 6-31G*
  @RKS Final Energy:   -40.51838160805876
    Total Energy =                        -40.5183816080587604
  @RKS Final Energy:   -40.51838163260182
    Total Energy =                        -40.5183816326018089
  @RKS Final Energy:   -40.51838278846877
    Total Energy =                        -40.5183827884687702
  @RKS Final Energy:   -40.51838278497780
    Total Energy =                        -40.5183827849777956
  @RKS Final Energy:   -40.51837949690949
    Total Energy =                        -40.5183794969094890
  @RKS Final Energy:   -40.51837927491533
    Total Energy =                        -40.5183792749153255
  @RKS Final Energy:   -40.51837961002845
    Total Energy =                        -40.5183796100284539
  @RKS Final Energy:   -40.51837986481489
    Total Energy =                        -40.5183798648148823
  @RKS Final Energy:   -40.51838024887059
    Total Energy =                        -40.5183802488705851
  Basis Set: 6-31G*
    Blend: 6-31G*
  @RKS Final Energy:   -40.51838001206481
    Total Energy =                        -40.5183800120648101
  Basis Set: 6-31G*
    Blend: 6-31G*
  Basis Set: 6-31G*
    Blend: 6-31G*
  @RKS Final Energy:   -40.51838114171900
    Total Energy =                        -40.5183811417190043
  Basis Set: 6-31G*
    Blend: 6-31G*
  Basis Set: 6-31G*
    Blend: 6-31G*
  @RKS Final Energy:   -40.51838198381333
    Total Energy =                        -40.5183819838133203
  Basis Set: 6-31G*
    Blend: 6-31G*
    Molecular point group: c1
  Charge       = 0
  Multiplicity = 1
  Basis Set: 6-31G*
    Blend: 6-31G*

    Orbital Energies [Eh]
    ---------------------

    Doubly Occupied:

       1A    -10.166959     2A     -0.690290     3A     -0.389299
       4A     -0.389060     5A     -0.388822

  @RKS Final Energy:   -40.51838174686080

   => Energetics <=

    Nuclear Repulsion Energy =             13.3948719425501377
    One-Electron Energy =                 -79.7582489918064539
    Two-Electron Energy =                  31.4318056505523415
    DFT Exchange-Correlation Energy =      -5.5868103481568214
    Empirical Dispersion Energy =           0.0000000000000000
    VV10 Nonlocal Energy =                  0.0000000000000000
    Total Energy =                        -40.5183817468607970

  Dipole Moment: [D]
     X:    -0.0000      Y:     0.0000      Z:    -0.0021     Total:     0.0021

    Molecular point group: c1

    Geometry (in Angstrom), charge = 0, multiplicity = 1:

       Center              X                  Y                   Z               Mass
    ------------   -----------------  -----------------  -----------------  -----------------
         C            0.000000377196    -0.000000377196     0.000000000000    12.000000000000
         H            0.000000377196     1.093297622804     0.000000000000     1.007825032230
         H           -0.516705421257    -0.364429372935     0.893433829811     1.007825032230
         H           -0.514069824350    -0.364429381458    -0.891912170189     1.007825032230
         H            1.030770377196    -0.364434377196    -0.001521659622     1.007825032230

  Basis Set: 6-31G*
    Blend: 6-31G*

  -Total Gradient:
     Atom            X                  Y                   Z
    ------   -----------------  -----------------  -----------------
       1       -0.000003715846    -0.000002421828    -0.001052220371
       2       -0.000000074388     0.000023112878     0.000018615183
       3       -0.000533060937    -0.000205622327     0.000662805768
       4        0.000513654581     0.000193587420     0.000630634142
       5        0.000020981616    -0.000008132217    -0.000259731721

  Vibration                       7                   8                   9
  Freq [cm^-1]                1373.1238           1373.1535           1373.1625
  Irrep                           Ap                 App                  Ap
  Reduced mass [u]              1.1787              1.1787              1.1787
  Force const [mDyne/A]         1.3094              1.3095              1.3095

  Vibration                       10                  11                  12
  Freq [cm^-1]                1593.1561           1593.1752           3053.2004
  Irrep                          App                  Ap                  Ap
  Reduced mass [u]              1.0078              1.0078              1.0078
  Force const [mDyne/A]         1.5071              1.5072              5.5354

  Vibration                       13                  14                  15
  Freq [cm^-1]                3162.9887           3162.9891           3163.0001
  Irrep                           Ap                 App                  Ap
  Reduced mass [u]              1.1019              1.1019              1.1019
  Force const [mDyne/A]         6.4949              6.4949              6.4950

  ==> Thermochemistry Components <==

  Entropy, S
    Electronic S            0.000 [cal/(mol K)]        0.000 [J/(mol K)]       0.00000000 [mEh/K] (multiplicity = 1)
    Translational S        34.261 [cal/(mol K)]      143.349 [J/(mol K)]       0.05459877 [mEh/K] (mol. weight = 16.0313 [u], P = 101325.00 [Pa])
    Rotational S           15.076 [cal/(mol K)]       63.077 [J/(mol K)]       0.02402467 [mEh/K] (symmetry no. = 1)
    Vibrational S           0.076 [cal/(mol K)]        0.319 [J/(mol K)]       0.00012140 [mEh/K]
  Total S                  49.413 [cal/(mol K)]      206.745 [J/(mol K)]       0.07874485 [mEh/K]
  Correction S              0.000 [cal/(mol K)]        0.000 [J/(mol K)]       0.00000000 [mEh/K]

  Constant volume heat capacity, Cv
    Electronic Cv           0.000 [cal/(mol K)]        0.000 [J/(mol K)]       0.00000000 [mEh/K]
    Translational Cv        2.981 [cal/(mol K)]       12.472 [J/(mol K)]       0.00475022 [mEh/K]
    Rotational Cv           2.981 [cal/(mol K)]       12.472 [J/(mol K)]       0.00475022 [mEh/K]
    Vibrational Cv          0.456 [cal/(mol K)]        1.908 [J/(mol K)]       0.00072668 [mEh/K]
  Total Cv                  6.418 [cal/(mol K)]       26.851 [J/(mol K)]       0.01022711 [mEh/K]
  Correction Cv             0.000 [cal/(mol K)]        0.000 [J/(mol K)]       0.00000000 [mEh/K]

  Constant pressure heat capacity, Cp
    Electronic Cp           0.000 [cal/(mol K)]        0.000 [J/(mol K)]       0.00000000 [mEh/K]
    Translational Cp        4.968 [cal/(mol K)]       20.786 [J/(mol K)]       0.00791703 [mEh/K]
    Rotational Cp           2.981 [cal/(mol K)]       12.472 [J/(mol K)]       0.00475022 [mEh/K]
    Vibrational Cp          0.456 [cal/(mol K)]        1.908 [J/(mol K)]       0.00072668 [mEh/K]
  Total Cp                  8.405 [cal/(mol K)]       35.166 [J/(mol K)]       0.01339392 [mEh/K]
  Correction Cp             0.000 [cal/(mol K)]        0.000 [J/(mol K)]       0.00000000 [mEh/K]

  ==> Thermochemistry Energy Analysis <==

  Raw electronic energy, E0
  Total E0, Electronic energy at well bottom at 0 [K]                  -40.51838346 [Eh]

  Zero-point energy, ZPE_vib = Sum_i nu_i / 2
    Electronic ZPE          0.000 [kcal/mol]        0.000 [kJ/mol]       0.00000000 [Eh]
    Translational ZPE       0.000 [kcal/mol]        0.000 [kJ/mol]       0.00000000 [Eh]
    Rotational ZPE          0.000 [kcal/mol]        0.000 [kJ/mol]       0.00000000 [Eh]
    Vibrational ZPE        28.374 [kcal/mol]      118.717 [kJ/mol]       0.04521696 [Eh]        9923.975 [cm^-1]
  Correction ZPE           28.374 [kcal/mol]      118.717 [kJ/mol]       0.04521696 [Eh]        9923.975 [cm^-1]
  Total ZPE, Electronic energy at 0 [K]                                -40.47316650 [Eh]

  Thermal Energy, E (includes ZPE)
    Electronic E            0.000 [kcal/mol]        0.000 [kJ/mol]       0.00000000 [Eh]
    Translational E         0.889 [kcal/mol]        3.718 [kJ/mol]       0.00141628 [Eh]
    Rotational E            0.889 [kcal/mol]        3.718 [kJ/mol]       0.00141628 [Eh]
    Vibrational E          28.394 [kcal/mol]      118.800 [kJ/mol]       0.04524853 [Eh]
  Correction E             30.171 [kcal/mol]      126.237 [kJ/mol]       0.04808108 [Eh]
  Total E, Electronic energy at  298.15 [K]                            -40.47030237 [Eh]

  Enthalpy, H_trans = E_trans + k_B * T
    Electronic H            0.000 [kcal/mol]        0.000 [kJ/mol]       0.00000000 [Eh]
    Translational H         1.481 [kcal/mol]        6.197 [kJ/mol]       0.00236046 [Eh]
    Rotational H            0.889 [kcal/mol]        3.718 [kJ/mol]       0.00141628 [Eh]
    Vibrational H          28.394 [kcal/mol]      118.800 [kJ/mol]       0.04524853 [Eh]
  Correction H             30.764 [kcal/mol]      128.716 [kJ/mol]       0.04902527 [Eh]
  Total H, Enthalpy at  298.15 [K]                                     -40.46935819 [Eh]

  Gibbs free energy, G = H - T * S
    Electronic G            0.000 [kcal/mol]        0.000 [kJ/mol]       0.00000000 [Eh]
    Translational G        -8.734 [kcal/mol]      -36.542 [kJ/mol]      -0.01391816 [Eh]
    Rotational G           -3.606 [kcal/mol]      -15.088 [kJ/mol]      -0.00574668 [Eh]
    Vibrational G          28.371 [kcal/mol]      118.705 [kJ/mol]       0.04521233 [Eh]
  Correction G             16.031 [kcal/mol]       67.075 [kJ/mol]       0.02554749 [Eh]
  Total G, Free enthalpy at  298.15 [K]                                -40.49283596 [Eh]

*** Psi4 exiting successfully. Buy a developer a beer!
