 Gaussian 09, Revision E.01,
 Gaussian 09:  ES64L-G09RevE.01 30-Nov-2015

 -----------------------------------------------------
 #P b3lyp/6-31g* # SCF=(xqc) # POpt=() # int=ultrafine
 -----------------------------------------------------

 --------
 comment:
 --------
 Symbolic Z-matrix:
 Charge =  0 Multiplicity = 1

 SCF Done:  E(RB3LYP) =  -76.4089507876     A.U. after    9 cycles
 SCF Done:  E(RB3LYP) =  -76.4089538595     A.U. after    6 cycles
 Optimization completed.
    -- Stationary point found.

                         Standard orientation:
 ---------------------------------------------------------------------
 Center     Atomic      Atomic             Coordinates (Angstroms)
 Number     Number       Type             X           Y           Z
 ---------------------------------------------------------------------
      1          8           0        0.000000    0.119788    0.000000
      2          1           0        0.761186   -0.479154    0.000000
      3          1           0       -0.761186   -0.479154    0.000000
 ---------------------------------------------------------------------

 The electronic state is 1-A'.
 Alpha  occ. eigenvalues --  -19.13817  -0.99799  -0.51711  -0.37232  -0.29122
 Alpha virt. eigenvalues --    0.06263   0.14816   0.77235   0.86120   0.89077
 Alpha virt. eigenvalues --    0.89515   1.06578   1.19364   1.72892   1.74638
 Alpha virt. eigenvalues --    1.77973   2.28074   2.57728   3.55189

 Mulliken charges:
               1
     1  O   -0.774273
     2  H    0.387136
     3  H    0.387136
 Sum of Mulliken charges =   0.00000

 Dipole moment (field-independent basis, Debye):
    X=              0.0000    Y=             -2.0960    Z=              0.0000  Tot=              2.0960
 Quadrupole moment (field-independent basis, Debye-Ang):
   XX=             -4.2889   YY=             -5.9885   ZZ=             -7.2036
   XY=              0.0000   XZ=              0.0000   YZ=             -0.0000

 Normal termination of Gaussian 09 at Tue Sep 10 12:26:09 2019.
