 Gaussian 09, Revision E.01,
 Gaussian 09:  ES64L-G09RevE.01 30-Nov-2015

 -------------------------------------------------------
 #P b3lyp/cc-pvdz # SCF=(xqc) # POpt=(CALCFC,TS,NOEIGEN)
 -------------------------------------------------------

 --------
 comment:
 --------
 Symbolic Z-matrix:
 Charge =  0 Multiplicity = 2

 SCF Done:  E(UB3LYP) =  -41.0023027717     A.U. after   12 cycles

  Exact polarizability:   0.000   0.000   0.000   0.000   0.000   0.000
 Approx polarizability:  37.570   0.005  16.714   0.002   0.000  16.713

 SCF Done:  E(UB3LYP) =  -41.0024070590     A.U. after   12 cycles
 SCF Done:  E(UB3LYP) =  -41.0024082649     A.U. after    8 cycles
 Optimization completed.
    -- Stationary point found.

                         Standard orientation:
 ---------------------------------------------------------------------
 Center     Atomic      Atomic             Coordinates (Angstroms)
 Number     Number       Type             X           Y           Z
 ---------------------------------------------------------------------
      1          6           0        0.281547   -0.000005   -0.000002
      2          1           0        0.517605   -0.573323   -0.902662
      3          1           0        0.517754   -0.495103    0.947782
      4          1           0        0.517871    1.068328   -0.045181
      5          1           0       -1.176872    0.000126    0.000063
      6          1           0       -2.065643    0.000002    0.000010
 ---------------------------------------------------------------------

 The electronic state is 2-A.
 Alpha  occ. eigenvalues --  -10.20445  -0.70145  -0.44277  -0.41709  -0.41709
 Alpha  occ. eigenvalues --   -0.21766
 Alpha virt. eigenvalues --    0.07350   0.13437   0.13437   0.16159   0.40813
 Alpha virt. eigenvalues --    0.40813   0.43478   0.45186   0.64052   0.64052
 Alpha virt. eigenvalues --    0.64198   0.68053   0.87654   0.87655   1.08776

  Beta  occ. eigenvalues --  -10.19305  -0.67266  -0.40910  -0.40910  -0.40206
  Beta virt. eigenvalues --   -0.08157   0.08071   0.13937   0.13937   0.18638
  Beta virt. eigenvalues --    0.41066   0.41066   0.46414   0.48525   0.64833
  Beta virt. eigenvalues --    0.64833   0.66900   0.69829   0.89592   0.89592

 Mulliken charges and spin densities:
               1          2
     1  C   -0.149290   0.721475
     2  H    0.055227  -0.016704
     3  H    0.055229  -0.016703
     4  H    0.055234  -0.016701
     5  H    0.057203  -0.134918
     6  H   -0.073602   0.463550
 Sum of Mulliken charges =  -0.00000   1.00000

 Dipole moment (field-independent basis, Debye):
    X=              0.7516    Y=             -0.0000    Z=             -0.0000  Tot=              0.7516
 Quadrupole moment (field-independent basis, Debye-Ang):
   XX=            -11.4963   YY=             -9.2874   ZZ=             -9.2874
   XY=              0.0002   XZ=              0.0001   YZ=             -0.0000

 Normal termination of Gaussian 09 at Thu Sep  5 23:39:34 2019.
