 Gaussian 09, Revision E.01,
 Gaussian 09:  ES64L-G09RevE.01 30-Nov-2015

 -----------------------------------------------------
 #P b3lyp/6-31g* # SCF=(xqc) # POpt=() # int=ultrafine
 -----------------------------------------------------

 --------
 comment:
 --------
 Symbolic Z-matrix:
 Charge =  0 Multiplicity = 1

 SCF Done:  E(RB3LYP) =  -151.532538462     A.U. after   10 cycles
 SCF Done:  E(RB3LYP) =  -151.532823280     A.U. after   11 cycles
 SCF Done:  E(RB3LYP) =  -151.532918454     A.U. after   10 cycles
 SCF Done:  E(RB3LYP) =  -151.533211559     A.U. after   10 cycles
 SCF Done:  E(RB3LYP) =  -151.533213580     A.U. after    7 cycles
 Optimization completed.
    -- Stationary point found.

                         Standard orientation:
 ---------------------------------------------------------------------
 Center     Atomic      Atomic             Coordinates (Angstroms)
 Number     Number       Type             X           Y           Z
 ---------------------------------------------------------------------
      1          8           0        0.718489    0.118182   -0.054354
      2          8           0       -0.718489   -0.118182   -0.054354
      3          1           0        1.013417   -0.670304    0.434834
      4          1           0       -1.013417    0.670304    0.434834
 ---------------------------------------------------------------------

 The electronic state is 1-A.
 Alpha  occ. eigenvalues --  -19.20279 -19.20271  -1.11048  -0.89406  -0.52258
 Alpha  occ. eigenvalues --   -0.48882  -0.41165  -0.31818  -0.26932
 Alpha virt. eigenvalues --    0.02433   0.06905   0.11579   0.77729   0.78025
 Alpha virt. eigenvalues --    0.81222   0.83895   0.92154   0.95583   0.98372
 Alpha virt. eigenvalues --    1.04487   1.18805   1.31848   1.51007   1.51418

 Mulliken charges:
               1
     1  O   -0.417448
     2  O   -0.417448
     3  H    0.417448
     4  H    0.417448
 Sum of Mulliken charges =  -0.00000

 Dipole moment (field-independent basis, Debye):
    X=             -0.0000    Y=             -0.0000    Z=              1.7792  Tot=              1.7792
 Quadrupole moment (field-independent basis, Debye-Ang):
   XX=            -10.0757   YY=            -10.1741   ZZ=            -11.5540
   XY=             -3.1629   XZ=              0.0000   YZ=             -0.0000

 Normal termination of Gaussian 09 at Tue Sep 10 12:24:59 2019.
