                               Psi4 1.3.2 release

  ==> Input File <==

--------------------------------------------------------------------------
#!
memory 1 GB

molecule {

0 1
N   -0.053809  -0.036288  -0.027435
H   -0.053809  -0.036288   0.991687
H   -0.053809   0.944233  -0.305260
H    0.855261  -0.403751  -0.305241
}
set basis 6-31g*
set scf_type pk
set reference rks
set mp2_type conv
_, wfn = frequency('B3LYP', return_wfn=True)
hess = wfn.hessian()
hess.name = 'Hessian'
hess.print_out()
--------------------------------------------------------------------------

    Molecular point group: c1
  Charge       = 0
  Multiplicity = 1
  Basis Set: 6-31G*
    Blend: 6-31G*
  @RKS Final Energy:   -56.54794764271279
    Total Energy =                        -56.5479476427127921
    Molecular point group: c1
  Basis Set: 6-31G*
    Blend: 6-31G*
  Basis Set: 6-31G*
    Blend: 6-31G*
  @RKS Final Energy:   -56.54794764271274
    Total Energy =                        -56.5479476427127423
  Basis Set: 6-31G*
    Blend: 6-31G*
  Basis Set: 6-31G*
    Blend: 6-31G*
  @RKS Final Energy:   -56.54794704712211
    Total Energy =                        -56.5479470471221077
  Basis Set: 6-31G*
    Blend: 6-31G*
  Basis Set: 6-31G*
    Blend: 6-31G*
  @RKS Final Energy:   -56.54794487921884
    Total Energy =                        -56.5479448792188393
  Basis Set: 6-31G*
    Blend: 6-31G*
  @RKS Final Energy:   -56.54794565153657
    Total Energy =                        -56.5479456515365726
  @RKS Final Energy:   -56.54794417987048
    Total Energy =                        -56.5479441798704769
  @RKS Final Energy:   -56.54794432908767
    Total Energy =                        -56.5479443290876702
  @RKS Final Energy:   -56.54794340860405
    Total Energy =                        -56.5479434086040484
  @RKS Final Energy:   -56.54794484574762
    Total Energy =                        -56.5479448457476224
  @RKS Final Energy:   -56.54794360303359
    Total Energy =                        -56.5479436030335947
  Basis Set: 6-31G*
    Blend: 6-31G*
  @RKS Final Energy:   -56.54794440368156
    Total Energy =                        -56.5479444036815622
  Basis Set: 6-31G*
    Blend: 6-31G*
  Basis Set: 6-31G*
    Blend: 6-31G*
  @RKS Final Energy:   -56.54794292623295
    Total Energy =                        -56.5479429262329489
  Basis Set: 6-31G*
    Blend: 6-31G*
  Basis Set: 6-31G*
    Blend: 6-31G*
  @RKS Final Energy:   -56.54794469104706
    Total Energy =                        -56.5479446910470571
  Basis Set: 6-31G*
    Blend: 6-31G*
    Molecular point group: c1
  Charge       = 0
  Multiplicity = 1
  Basis Set: 6-31G*
    Blend: 6-31G*

    Orbital Energies [Eh]
    ---------------------

    Doubly Occupied:

       1A    -14.305605     2A     -0.845785     3A     -0.452697
       4A     -0.452576     5A     -0.252314

  @RKS Final Energy:   -56.54794274684831

   => Energetics <=

    Nuclear Repulsion Energy =             11.8923588400947597
    One-Electron Energy =                 -99.5921142939172199
    Two-Electron Energy =                  37.6505266051448757
    DFT Exchange-Correlation Energy =      -6.4987138981707222
    Empirical Dispersion Energy =           0.0000000000000000
    VV10 Nonlocal Energy =                  0.0000000000000000
    Total Energy =                        -56.5479427468483067

  Dipole Moment: [D]
     X:     1.4594      Y:     0.9842      Z:     0.7430     Total:     1.9106

    Molecular point group: c1

    Geometry (in Angstrom), charge = 0, multiplicity = 1:

       Center              X                  Y                   Z               Mass
    ------------   -----------------  -----------------  -----------------  -----------------
         N           -0.053809112851    -0.036287752435    -0.027434674474    14.003074004430
         H           -0.053809112851    -0.036287752435     0.991687325526     1.007825032230
         H           -0.052767098325     0.942688131228    -0.305259652696     1.007825032230
         H            0.854218872623    -0.402205636098    -0.305240696253     1.007825032230

  Basis Set: 6-31G*
    Blend: 6-31G*

  -Total Gradient:
     Atom            X                  Y                   Z
    ------   -----------------  -----------------  -----------------
       1        0.001145569388     0.000776499841    -0.000388209104
       2       -0.000046661666    -0.000033161058    -0.000169005999
       3        0.000193765505    -0.001469608005     0.000280931134
       4       -0.001287882968     0.000729572462     0.000282029790

  Vibration                       7                   8                   9
  Freq [cm^-1]                1127.8372           1726.1820           1726.2058
  Irrep                           A                   A                   A
  Reduced mass [u]              1.1798              1.0643              1.0643
  Force const [mDyne/A]         0.8842              1.8685              1.8686

  Vibration                       10                  11                  12
  Freq [cm^-1]                3439.8132           3571.9171           3571.9510
  Irrep                           A                   A                   A
  Reduced mass [u]              1.0273              1.0887              1.0887
  Force const [mDyne/A]         7.1620              8.1839              8.1840

  ==> Thermochemistry Components <==

  Entropy, S
    Electronic S            0.000 [cal/(mol K)]        0.000 [J/(mol K)]       0.00000000 [mEh/K] (multiplicity = 1)
    Translational S        34.441 [cal/(mol K)]      144.100 [J/(mol K)]       0.05488488 [mEh/K] (mol. weight = 17.0265 [u], P = 101325.00 [Pa])
    Rotational S           13.653 [cal/(mol K)]       57.122 [J/(mol K)]       0.02175669 [mEh/K] (symmetry no. = 1)
    Vibrational S           0.065 [cal/(mol K)]        0.270 [J/(mol K)]       0.00010292 [mEh/K]
  Total S                  48.158 [cal/(mol K)]      201.493 [J/(mol K)]       0.07674450 [mEh/K]
  Correction S              0.000 [cal/(mol K)]        0.000 [J/(mol K)]       0.00000000 [mEh/K]

  Constant volume heat capacity, Cv
    Electronic Cv           0.000 [cal/(mol K)]        0.000 [J/(mol K)]       0.00000000 [mEh/K]
    Translational Cv        2.981 [cal/(mol K)]       12.472 [J/(mol K)]       0.00475022 [mEh/K]
    Rotational Cv           2.981 [cal/(mol K)]       12.472 [J/(mol K)]       0.00475022 [mEh/K]
    Vibrational Cv          0.324 [cal/(mol K)]        1.354 [J/(mol K)]       0.00051571 [mEh/K]
  Total Cv                  6.285 [cal/(mol K)]       26.297 [J/(mol K)]       0.01001614 [mEh/K]
  Correction Cv             0.000 [cal/(mol K)]        0.000 [J/(mol K)]       0.00000000 [mEh/K]

  Constant pressure heat capacity, Cp
    Electronic Cp           0.000 [cal/(mol K)]        0.000 [J/(mol K)]       0.00000000 [mEh/K]
    Translational Cp        4.968 [cal/(mol K)]       20.786 [J/(mol K)]       0.00791703 [mEh/K]
    Rotational Cp           2.981 [cal/(mol K)]       12.472 [J/(mol K)]       0.00475022 [mEh/K]
    Vibrational Cp          0.324 [cal/(mol K)]        1.354 [J/(mol K)]       0.00051571 [mEh/K]
  Total Cp                  8.272 [cal/(mol K)]       34.612 [J/(mol K)]       0.01318295 [mEh/K]
  Correction Cp             0.000 [cal/(mol K)]        0.000 [J/(mol K)]       0.00000000 [mEh/K]

  ==> Thermochemistry Energy Analysis <==

  Raw electronic energy, E0
  Total E0, Electronic energy at well bottom at 0 [K]                  -56.54794764 [Eh]

  Zero-point energy, ZPE_vib = Sum_i nu_i / 2
    Electronic ZPE          0.000 [kcal/mol]        0.000 [kJ/mol]       0.00000000 [Eh]
    Translational ZPE       0.000 [kcal/mol]        0.000 [kJ/mol]       0.00000000 [Eh]
    Rotational ZPE          0.000 [kcal/mol]        0.000 [kJ/mol]       0.00000000 [Eh]
    Vibrational ZPE        21.678 [kcal/mol]       90.700 [kJ/mol]       0.03454592 [Eh]        7581.953 [cm^-1]
  Correction ZPE           21.678 [kcal/mol]       90.700 [kJ/mol]       0.03454592 [Eh]        7581.953 [cm^-1]
  Total ZPE, Electronic energy at 0 [K]                                -56.51340172 [Eh]

  Thermal Energy, E (includes ZPE)
    Electronic E            0.000 [kcal/mol]        0.000 [kJ/mol]       0.00000000 [Eh]
    Translational E         0.889 [kcal/mol]        3.718 [kJ/mol]       0.00141628 [Eh]
    Rotational E            0.889 [kcal/mol]        3.718 [kJ/mol]       0.00141628 [Eh]
    Vibrational E          21.694 [kcal/mol]       90.769 [kJ/mol]       0.03457206 [Eh]
  Correction E             23.472 [kcal/mol]       98.206 [kJ/mol]       0.03740461 [Eh]
  Total E, Electronic energy at  298.15 [K]                            -56.51054303 [Eh]

  Enthalpy, H_trans = E_trans + k_B * T
    Electronic H            0.000 [kcal/mol]        0.000 [kJ/mol]       0.00000000 [Eh]
    Translational H         1.481 [kcal/mol]        6.197 [kJ/mol]       0.00236046 [Eh]
    Rotational H            0.889 [kcal/mol]        3.718 [kJ/mol]       0.00141628 [Eh]
    Vibrational H          21.694 [kcal/mol]       90.769 [kJ/mol]       0.03457206 [Eh]
  Correction H             24.064 [kcal/mol]      100.685 [kJ/mol]       0.03834879 [Eh]
  Total H, Enthalpy at  298.15 [K]                                     -56.50959885 [Eh]

  Gibbs free energy, G = H - T * S
    Electronic G            0.000 [kcal/mol]        0.000 [kJ/mol]       0.00000000 [Eh]
    Translational G        -8.787 [kcal/mol]      -36.766 [kJ/mol]      -0.01400347 [Eh]
    Rotational G           -3.182 [kcal/mol]      -13.313 [kJ/mol]      -0.00507048 [Eh]
    Vibrational G          21.675 [kcal/mol]       90.688 [kJ/mol]       0.03454137 [Eh]
  Correction G              9.706 [kcal/mol]       40.610 [kJ/mol]       0.01546742 [Eh]
  Total G, Free enthalpy at  298.15 [K]                                -56.53248022 [Eh]

*** Psi4 exiting successfully. Buy a developer a beer!
