 Gaussian 09, Revision E.01,
 Gaussian 09:  ES64L-G09RevE.01 30-Nov-2015

 -----------------------------------------------------
 #P b3lyp/6-31g* # SCF=(xqc) # POpt=() # int=ultrafine
 -----------------------------------------------------

 --------
 comment:
 --------
 Symbolic Z-matrix:
 Charge =  0 Multiplicity = 1

 SCF Done:  E(RB3LYP) =  -40.5183804625     A.U. after    8 cycles
 SCF Done:  E(RB3LYP) =  -40.5183833360     A.U. after    5 cycles
 Optimization completed.
    -- Stationary point found.

                         Standard orientation:
 ---------------------------------------------------------------------
 Center     Atomic      Atomic             Coordinates (Angstroms)
 Number     Number       Type             X           Y           Z
 ---------------------------------------------------------------------
      1          6           0        0.000000    0.000000    0.000000
      2          1           0        0.631216    0.631216    0.631216
      3          1           0       -0.631216   -0.631216    0.631216
      4          1           0       -0.631216    0.631216   -0.631216
      5          1           0        0.631216   -0.631216   -0.631216
 ---------------------------------------------------------------------

 The electronic state is 1-A1.
 Alpha  occ. eigenvalues --  -10.16696  -0.69029  -0.38906  -0.38906  -0.38906
 Alpha virt. eigenvalues --    0.11791   0.17653   0.17653   0.17653   0.53326
 Alpha virt. eigenvalues --    0.53326   0.53326   0.89770   0.89770   0.89770
 Alpha virt. eigenvalues --    0.94742   1.09984   1.65652   1.65652   2.24358

 Mulliken charges:
               1
     1  C   -0.628178
     2  H    0.157044
     3  H    0.157044
     4  H    0.157044
     5  H    0.157044
 Sum of Mulliken charges =   0.00000

 Dipole moment (field-independent basis, Debye):
    X=             -0.0000    Y=             -0.0000    Z=             -0.0000  Tot=              0.0000
 Quadrupole moment (field-independent basis, Debye-Ang):
   XX=             -8.2515   YY=             -8.2515   ZZ=             -8.2515
   XY=             -0.0000   XZ=             -0.0000   YZ=             -0.0000

 1\1\GINC-BLUESLOGIN2\POpt\RB3LYP\6-31G(d)\C1H4\ELLIOTT\23-Aug-2019\1\\
 #P b3lyp/6-31g* # SCF=(xqc) # POpt=() # int=ultrafine\\comment:\\0,1\C
 \H,1,R1\H,1,R2,2,A2\H,1,R3,2,A3,3,D3,0\H,1,R4,2,A4,3,D4,0\\R1=1.093298
 13\R2=1.09329813\A2=109.47122063\R3=1.09329813\A3=109.47122063\D3=120.
 \R4=1.09329813\A4=109.47122063\D4=240.\\Version=ES64L-G09RevE.01\State
 =1-A1\HF=-40.5183833\RMSD=4.126e-09\RMSF=1.177e-05\Dipole=0.,0.,0.\Qua
 drupole=0.,0.,0.,0.,0.,0.\PG=TD [O(C1),4C3(H1)]\\@

 Normal termination of Gaussian 09 at Fri Aug 23 16:04:19 2019.
