                               Psi4 1.3.2 release

  ==> Input File <==

--------------------------------------------------------------------------
#!
memory 1 GB

molecule {

0 1
N   -0.055520  -0.039486  -0.030678
H   -0.055520  -0.039486   0.994087
H   -0.055520   0.953503  -0.283912
H    0.882460  -0.365385  -0.283925
}
set basis cc-pvdz
set scf_type pk
set reference rks
set mp2_type conv
_, wfn = frequency('B3LYP', return_wfn=True)
hess = wfn.hessian()
hess.name = 'Hessian'
hess.print_out()
--------------------------------------------------------------------------

    Molecular point group: c1
  Charge       = 0
  Multiplicity = 1
  Basis Set: CC-PVDZ
    Blend: CC-PVDZ
  @RKS Final Energy:   -56.55425503555257
    Total Energy =                        -56.5542550355525719
    Molecular point group: c1
  Basis Set: CC-PVDZ
    Blend: CC-PVDZ
  Basis Set: CC-PVDZ
    Blend: CC-PVDZ
  @RKS Final Energy:   -56.55425503555264
    Total Energy =                        -56.5542550355526430
  Basis Set: CC-PVDZ
    Blend: CC-PVDZ
  Basis Set: CC-PVDZ
    Blend: CC-PVDZ
  @RKS Final Energy:   -56.55425343697595
    Total Energy =                        -56.5542534369759480
  Basis Set: CC-PVDZ
    Blend: CC-PVDZ
  Basis Set: CC-PVDZ
    Blend: CC-PVDZ
  @RKS Final Energy:   -56.55425339668218
    Total Energy =                        -56.5542533966821850
  Basis Set: CC-PVDZ
    Blend: CC-PVDZ
  @RKS Final Energy:   -56.55425144999062
    Total Energy =                        -56.5542514499906233
  @RKS Final Energy:   -56.55425160181348
    Total Energy =                        -56.5542516018134762
  @RKS Final Energy:   -56.55425083048782
    Total Energy =                        -56.5542508304878169
  @RKS Final Energy:   -56.55425062808449
    Total Energy =                        -56.5542506280844890
  @RKS Final Energy:   -56.55425114803524
    Total Energy =                        -56.5542511480352417
  @RKS Final Energy:   -56.55425054541847
    Total Energy =                        -56.5542505454184692
  Basis Set: CC-PVDZ
    Blend: CC-PVDZ
  @RKS Final Energy:   -56.55425076426036
    Total Energy =                        -56.5542507642603596
  Basis Set: CC-PVDZ
    Blend: CC-PVDZ
  Basis Set: CC-PVDZ
    Blend: CC-PVDZ
  @RKS Final Energy:   -56.55425004172414
    Total Energy =                        -56.5542500417241385
  Basis Set: CC-PVDZ
    Blend: CC-PVDZ
  Basis Set: CC-PVDZ
    Blend: CC-PVDZ
  @RKS Final Energy:   -56.55425082593521
    Total Energy =                        -56.5542508259352132
  Basis Set: CC-PVDZ
    Blend: CC-PVDZ
    Molecular point group: c1
  Charge       = 0
  Multiplicity = 1
  Basis Set: CC-PVDZ
    Blend: CC-PVDZ

    Orbital Energies [Eh]
    ---------------------

    Doubly Occupied:

       1A    -14.302653     2A     -0.842205     3A     -0.443978
       4A     -0.443839     5A     -0.255627

  @RKS Final Energy:   -56.55424986888237

   => Energetics <=

    Nuclear Repulsion Energy =             11.8365675447599248
    One-Electron Energy =                 -99.5323420674599220
    Two-Electron Energy =                  37.6442928893592423
    DFT Exchange-Correlation Energy =      -6.5027682355416223
    Empirical Dispersion Energy =           0.0000000000000000
    VV10 Nonlocal Energy =                  0.0000000000000000
    Total Energy =                        -56.5542498688823727

  Dipole Moment: [D]
     X:     1.2537      Y:     0.8916      Z:     0.6918     Total:     1.6869

    Molecular point group: c1

    Geometry (in Angstrom), charge = 0, multiplicity = 1:

       Center              X                  Y                   Z               Mass
    ------------   -----------------  -----------------  -----------------  -----------------
         N           -0.055520335807    -0.039485981379    -0.030677948062    14.003074004430
         H           -0.055520335807    -0.039485981379     0.994087051938     1.007825032230
         H           -0.054440228650     0.951984286486    -0.283911963032     1.007825032230
         H            0.881379557036    -0.363866249244    -0.283924933092     1.007825032230

  Basis Set: CC-PVDZ
    Blend: CC-PVDZ

  -Total Gradient:
     Atom            X                  Y                   Z
    ------   -----------------  -----------------  -----------------
       1        0.000853848121     0.000604600262    -0.000478326649
       2        0.000028356795     0.000021284389    -0.000049703015
       3        0.000268750377    -0.001305906691     0.000267958105
       4       -0.001146790582     0.000682951970     0.000267232124

  Vibration                       7                   8                   9
  Freq [cm^-1]                1123.3393           1673.1615           1673.1757
  Irrep                           A                   A                   A
  Reduced mass [u]              1.1765              1.0622              1.0622
  Force const [mDyne/A]         0.8747              1.7520              1.7520

  Vibration                       10                  11                  12
  Freq [cm^-1]                3417.6311           3531.7980           3531.8592
  Irrep                           A                   A                   A
  Reduced mass [u]              1.0299              1.0865              1.0865
  Force const [mDyne/A]         7.0873              7.9848              7.9851

  ==> Thermochemistry Components <==

  Entropy, S
    Electronic S            0.000 [cal/(mol K)]        0.000 [J/(mol K)]       0.00000000 [mEh/K] (multiplicity = 1)
    Translational S        34.441 [cal/(mol K)]      144.100 [J/(mol K)]       0.05488488 [mEh/K] (mol. weight = 17.0265 [u], P = 101325.00 [Pa])
    Rotational S           13.685 [cal/(mol K)]       57.258 [J/(mol K)]       0.02180860 [mEh/K] (symmetry no. = 1)
    Vibrational S           0.068 [cal/(mol K)]        0.284 [J/(mol K)]       0.00010822 [mEh/K]
  Total S                  48.194 [cal/(mol K)]      201.643 [J/(mol K)]       0.07680170 [mEh/K]
  Correction S              0.000 [cal/(mol K)]        0.000 [J/(mol K)]       0.00000000 [mEh/K]

  Constant volume heat capacity, Cv
    Electronic Cv           0.000 [cal/(mol K)]        0.000 [J/(mol K)]       0.00000000 [mEh/K]
    Translational Cv        2.981 [cal/(mol K)]       12.472 [J/(mol K)]       0.00475022 [mEh/K]
    Rotational Cv           2.981 [cal/(mol K)]       12.472 [J/(mol K)]       0.00475022 [mEh/K]
    Vibrational Cv          0.341 [cal/(mol K)]        1.429 [J/(mol K)]       0.00054412 [mEh/K]
  Total Cv                  6.303 [cal/(mol K)]       26.372 [J/(mol K)]       0.01004455 [mEh/K]
  Correction Cv             0.000 [cal/(mol K)]        0.000 [J/(mol K)]       0.00000000 [mEh/K]

  Constant pressure heat capacity, Cp
    Electronic Cp           0.000 [cal/(mol K)]        0.000 [J/(mol K)]       0.00000000 [mEh/K]
    Translational Cp        4.968 [cal/(mol K)]       20.786 [J/(mol K)]       0.00791703 [mEh/K]
    Rotational Cp           2.981 [cal/(mol K)]       12.472 [J/(mol K)]       0.00475022 [mEh/K]
    Vibrational Cp          0.341 [cal/(mol K)]        1.429 [J/(mol K)]       0.00054412 [mEh/K]
  Total Cp                  8.290 [cal/(mol K)]       34.686 [J/(mol K)]       0.01321136 [mEh/K]
  Correction Cp             0.000 [cal/(mol K)]        0.000 [J/(mol K)]       0.00000000 [mEh/K]

  ==> Thermochemistry Energy Analysis <==

  Raw electronic energy, E0
  Total E0, Electronic energy at well bottom at 0 [K]                  -56.55425504 [Eh]

  Zero-point energy, ZPE_vib = Sum_i nu_i / 2
    Electronic ZPE          0.000 [kcal/mol]        0.000 [kJ/mol]       0.00000000 [Eh]
    Translational ZPE       0.000 [kcal/mol]        0.000 [kJ/mol]       0.00000000 [Eh]
    Rotational ZPE          0.000 [kcal/mol]        0.000 [kJ/mol]       0.00000000 [Eh]
    Vibrational ZPE        21.373 [kcal/mol]       89.427 [kJ/mol]       0.03406080 [Eh]        7475.482 [cm^-1]
  Correction ZPE           21.373 [kcal/mol]       89.427 [kJ/mol]       0.03406080 [Eh]        7475.482 [cm^-1]
  Total ZPE, Electronic energy at 0 [K]                                -56.52019423 [Eh]

  Thermal Energy, E (includes ZPE)
    Electronic E            0.000 [kcal/mol]        0.000 [kJ/mol]       0.00000000 [Eh]
    Translational E         0.889 [kcal/mol]        3.718 [kJ/mol]       0.00141628 [Eh]
    Rotational E            0.889 [kcal/mol]        3.718 [kJ/mol]       0.00141628 [Eh]
    Vibrational E          21.391 [kcal/mol]       89.499 [kJ/mol]       0.03408830 [Eh]
  Correction E             23.168 [kcal/mol]       96.936 [kJ/mol]       0.03692085 [Eh]
  Total E, Electronic energy at  298.15 [K]                            -56.51733418 [Eh]

  Enthalpy, H_trans = E_trans + k_B * T
    Electronic H            0.000 [kcal/mol]        0.000 [kJ/mol]       0.00000000 [Eh]
    Translational H         1.481 [kcal/mol]        6.197 [kJ/mol]       0.00236046 [Eh]
    Rotational H            0.889 [kcal/mol]        3.718 [kJ/mol]       0.00141628 [Eh]
    Vibrational H          21.391 [kcal/mol]       89.499 [kJ/mol]       0.03408830 [Eh]
  Correction H             23.761 [kcal/mol]       99.415 [kJ/mol]       0.03786504 [Eh]
  Total H, Enthalpy at  298.15 [K]                                     -56.51639000 [Eh]

  Gibbs free energy, G = H - T * S
    Electronic G            0.000 [kcal/mol]        0.000 [kJ/mol]       0.00000000 [Eh]
    Translational G        -8.787 [kcal/mol]      -36.766 [kJ/mol]      -0.01400347 [Eh]
    Rotational G           -3.191 [kcal/mol]      -13.353 [kJ/mol]      -0.00508596 [Eh]
    Vibrational G          21.370 [kcal/mol]       89.414 [kJ/mol]       0.03405603 [Eh]
  Correction G              9.392 [kcal/mol]       39.295 [kJ/mol]       0.01496661 [Eh]
  Total G, Free enthalpy at  298.15 [K]                                -56.53928843 [Eh]

*** Psi4 exiting successfully. Buy a developer a beer!
