 Gaussian 09, Revision E.01,
 Gaussian 09:  ES64L-G09RevE.01 30-Nov-2015

 ----------------------------------------------------------------------
 #P b3lyp/6-31g* # SCF=(xqc) # POpt=(CALCFC,TS,NOEIGEN) # int=ultrafine
 ----------------------------------------------------------------------

 --------
 comment:
 --------
 Symbolic Z-matrix:
 Charge =  0 Multiplicity = 2

 SCF Done:  E(UB3LYP) =  -41.0049578818     A.U. after   13 cycles

  Exact polarizability:   0.000   0.000   0.000   0.000   0.000   0.000
 Approx polarizability:  23.425  -0.046  13.755  -0.105  -0.000  13.753

 SCF Done:  E(UB3LYP) =  -41.0088497658     A.U. after   11 cycles
 SCF Done:  E(UB3LYP) =  -41.0107911985     A.U. after   12 cycles
 SCF Done:  E(UB3LYP) =  -41.0108110280     A.U. after   12 cycles
 SCF Done:  E(UB3LYP) =  -41.0096352113     A.U. after   12 cycles
 SCF Done:  E(UB3LYP) =  -41.0092512956     A.U. after   12 cycles
 SCF Done:  E(UB3LYP) =  -41.0087957987     A.U. after   11 cycles
 SCF Done:  E(UB3LYP) =  -41.0072988608     A.U. after   12 cycles
 SCF Done:  E(UB3LYP) =  -41.0054347182     A.U. after   12 cycles
 SCF Done:  E(UB3LYP) =  -41.0047794026     A.U. after   12 cycles
 SCF Done:  E(UB3LYP) =  -41.0022831001     A.U. after   12 cycles
 SCF Done:  E(UB3LYP) =  -41.0017022624     A.U. after   13 cycles
 SCF Done:  E(UB3LYP) =  -41.0011514153     A.U. after   12 cycles
 SCF Done:  E(UB3LYP) =  -41.0015071650     A.U. after   12 cycles
 SCF Done:  E(UB3LYP) =  -41.0019939858     A.U. after   12 cycles
 SCF Done:  E(UB3LYP) =  -41.0019877999     A.U. after   12 cycles
 SCF Done:  E(UB3LYP) =  -41.0020111505     A.U. after   11 cycles
 SCF Done:  E(UB3LYP) =  -41.0020276280     A.U. after   11 cycles
 SCF Done:  E(UB3LYP) =  -41.0020285901     A.U. after    9 cycles
 Optimization completed.
    -- Stationary point found.

                         Standard orientation:
 ---------------------------------------------------------------------
 Center     Atomic      Atomic             Coordinates (Angstroms)
 Number     Number       Type             X           Y           Z
 ---------------------------------------------------------------------
      1          6           0        0.271835    0.000040   -0.000011
      2          1           0        0.521363   -0.448006   -0.959963
      3          1           0        0.520497   -0.607509    0.868076
      4          1           0        0.520289    1.055633    0.092167
      5          1           0       -1.151505   -0.000272    0.000312
      6          1           0       -2.041656   -0.000083   -0.000529
 ---------------------------------------------------------------------

 The electronic state is 2-A.
 Alpha  occ. eigenvalues --  -10.19730  -0.70205  -0.44793  -0.41632  -0.41628
 Alpha  occ. eigenvalues --   -0.21331
 Alpha virt. eigenvalues --    0.11445   0.16961   0.16963   0.19994   0.52464
 Alpha virt. eigenvalues --    0.52468   0.55536   0.69352   0.89343   0.89349
 Alpha virt. eigenvalues --    0.92279   0.99893   1.19289   1.63573   1.63576

  Beta  occ. eigenvalues --  -10.18626  -0.67436  -0.40867  -0.40862  -0.40618
  Beta virt. eigenvalues --   -0.07366   0.12287   0.17613   0.17616   0.22890
  Beta virt. eigenvalues --    0.52928   0.52933   0.60483   0.73206   0.90061
  Beta virt. eigenvalues --    0.90067   0.94384   1.00852   1.21725   1.67785

 Mulliken charges and spin densities:
               1          2
     1  C   -0.522742   0.729835
     2  H    0.177456  -0.022753
     3  H    0.177469  -0.022735
     4  H    0.177479  -0.022743
     5  H    0.002541  -0.149201
     6  H   -0.012203   0.487597
 Sum of Mulliken charges =  -0.00000   1.00000

 Dipole moment (field-independent basis, Debye):
    X=              0.7562    Y=              0.0001    Z=              0.0003  Tot=              0.7562
 Quadrupole moment (field-independent basis, Debye-Ang):
   XX=            -11.2295   YY=             -9.2323   ZZ=             -9.2332
   XY=             -0.0007   XZ=             -0.0011   YZ=              0.0000

 Normal termination of Gaussian 09 at Fri Aug 23 16:10:05 2019.
