 Gaussian 09, Revision E.01,
 Gaussian 09:  ES64L-G09RevE.01 30-Nov-2015

 -----------------------------------------------------
 #P b3lyp/6-31g* # SCF=(xqc) # POpt=() # int=ultrafine
 -----------------------------------------------------

 --------
 comment:
 --------
 Symbolic Z-matrix:
 Charge =  0 Multiplicity = 2

 SCF Done:  E(UB3LYP) =  -41.0048059228     A.U. after   12 cycles
 SCF Done:  E(UB3LYP) =  -41.0049331204     A.U. after   10 cycles
 SCF Done:  E(UB3LYP) =  -41.0049369474     A.U. after    9 cycles
 SCF Done:  E(UB3LYP) =  -41.0049534829     A.U. after   10 cycles
 SCF Done:  E(UB3LYP) =  -41.0049567256     A.U. after   10 cycles
 SCF Done:  E(UB3LYP) =  -41.0049572291     A.U. after    9 cycles
 SCF Done:  E(UB3LYP) =  -41.0049570554     A.U. after   10 cycles
 SCF Done:  E(UB3LYP) =  -41.0049574389     A.U. after    8 cycles
 SCF Done:  E(UB3LYP) =  -41.0049575169     A.U. after    8 cycles
 SCF Done:  E(UB3LYP) =  -41.0049572954     A.U. after   10 cycles
 SCF Done:  E(UB3LYP) =  -41.0049575906     A.U. after    3 cycles
 SCF Done:  E(UB3LYP) =  -41.0049576668     A.U. after    8 cycles
 SCF Done:  E(UB3LYP) =  -41.0049577595     A.U. after    9 cycles
 SCF Done:  E(UB3LYP) =  -41.0049576732     A.U. after    9 cycles
 SCF Done:  E(UB3LYP) =  -41.0049578851     A.U. after    8 cycles
 Optimization completed.
    -- Stationary point found.

                         Standard orientation:
 ---------------------------------------------------------------------
 Center     Atomic      Atomic             Coordinates (Angstroms)
 Number     Number       Type             X           Y           Z
 ---------------------------------------------------------------------
      1          6           0        0.538112   -0.000280   -0.000654
      2          1           0        0.558401    0.279281   -1.046590
      3          1           0        0.567677   -1.045828    0.279488
      4          1           0        0.582184    0.765272    0.763880
      5          1           0       -2.027020    0.001950    0.004484
      6          1           0       -2.909917    0.001007    0.002666
 ---------------------------------------------------------------------

 The electronic state is 2-A.
 Alpha  occ. eigenvalues --  -10.19787  -0.68693  -0.42149  -0.42146  -0.40086
 Alpha  occ. eigenvalues --   -0.22876
 Alpha virt. eigenvalues --    0.08083   0.11326   0.17835   0.17836   0.53983
 Alpha virt. eigenvalues --    0.53985   0.55143   0.62362   0.78582   0.90947
 Alpha virt. eigenvalues --    0.90950   0.96138   1.12175   1.64430   1.64431

  Beta  occ. eigenvalues --  -10.18400  -0.64705  -0.41203  -0.41200  -0.39738
  Beta virt. eigenvalues --   -0.06170   0.09310   0.12950   0.18384   0.18385
  Beta virt. eigenvalues --    0.54800   0.54802   0.60569   0.64939   0.80437
  Beta virt. eigenvalues --    0.91434   0.91437   0.98683   1.12774   1.71413

 Mulliken charges and spin densities:
               1          2
     1  C   -0.486593   1.123783
     2  H    0.168467  -0.050214
     3  H    0.168447  -0.050219
     4  H    0.168401  -0.050226
     5  H    0.004629  -0.013002
     6  H   -0.023351   0.039878
 Sum of Mulliken charges =   0.00000   1.00000

 Dipole moment (field-independent basis, Debye):
    X=              0.3797    Y=             -0.0005    Z=             -0.0014  Tot=              0.3797
 Quadrupole moment (field-independent basis, Debye-Ang):
   XX=            -10.8734   YY=             -9.1704   ZZ=             -9.1709
   XY=              0.0085   XZ=              0.0206   YZ=             -0.0000

 Normal termination of Gaussian 09 at Fri Aug 23 16:08:06 2019.
