                               Psi4 1.3.2 release

  ==> Input File <==

--------------------------------------------------------------------------
#!
memory 1 GB

molecule {

0 1
O    0.025158  -0.015200  -0.726410
O    0.025158  -0.015200   0.726410
H    0.025158   0.943731  -0.892901
H   -0.823709  -0.461263   0.892901
}
set basis cc-pvdz
set scf_type pk
set reference rks
set mp2_type conv
_, wfn = frequency('B3LYP', return_wfn=True)
hess = wfn.hessian()
hess.name = 'Hessian'
hess.print_out()
--------------------------------------------------------------------------

    Molecular point group: c1
  Charge       = 0
  Multiplicity = 1
  Basis Set: CC-PVDZ
    Blend: CC-PVDZ
  @RKS Final Energy:  -151.55066526635130
    Total Energy =                       -151.5506652663512739
    Molecular point group: c1
  Basis Set: CC-PVDZ
    Blend: CC-PVDZ
  Basis Set: CC-PVDZ
    Blend: CC-PVDZ
  @RKS Final Energy:  -151.55066526635153
    Total Energy =                       -151.5506652663515581
  Basis Set: CC-PVDZ
    Blend: CC-PVDZ
  Basis Set: CC-PVDZ
    Blend: CC-PVDZ
  @RKS Final Energy:  -151.55066493891692
    Total Energy =                       -151.5506649389168956
  Basis Set: CC-PVDZ
    Blend: CC-PVDZ
  Basis Set: CC-PVDZ
    Blend: CC-PVDZ
  @RKS Final Energy:  -151.55066493007774
    Total Energy =                       -151.5506649300777156
  Basis Set: CC-PVDZ
    Blend: CC-PVDZ
  @RKS Final Energy:  -151.55066093501426
    Total Energy =                       -151.5506609350142639
  @RKS Final Energy:  -151.55066089501605
    Total Energy =                       -151.5506608950160512
  @RKS Final Energy:  -151.55066476042771
    Total Energy =                       -151.5506647604276509
  @RKS Final Energy:  -151.55066478697429
    Total Energy =                       -151.5506647869742665
  @RKS Final Energy:  -151.55066105612022
    Total Energy =                       -151.5506610561202194
  @RKS Final Energy:  -151.55066109427742
    Total Energy =                       -151.5506610942774159
  Basis Set: CC-PVDZ
    Blend: CC-PVDZ
  @RKS Final Energy:  -151.55066268081455
    Total Energy =                       -151.5506626808145541
  Basis Set: CC-PVDZ
    Blend: CC-PVDZ
  Basis Set: CC-PVDZ
    Blend: CC-PVDZ
  @RKS Final Energy:  -151.55066269451046
    Total Energy =                       -151.5506626945104927
  Basis Set: CC-PVDZ
    Blend: CC-PVDZ
  Basis Set: CC-PVDZ
    Blend: CC-PVDZ
  @RKS Final Energy:  -151.55066194638323
    Total Energy =                       -151.5506619463832294
  Basis Set: CC-PVDZ
    Blend: CC-PVDZ
    Molecular point group: c1
  Charge       = 0
  Multiplicity = 1
  Basis Set: CC-PVDZ
    Blend: CC-PVDZ

    Orbital Energies [Eh]
    ---------------------

    Doubly Occupied:

       1A    -19.187301     2A    -19.187261     3A     -1.108494
       4A     -0.888891     5A     -0.519279     6A     -0.483211
       7A     -0.408167     8A     -0.312994     9A     -0.266633

  @RKS Final Energy:  -151.55066192386863

   => Energetics <=

    Nuclear Repulsion Energy =             36.7118386700117938
    One-Electron Energy =                -281.4173768954436810
    Two-Electron Energy =                 107.6161784433583790
    DFT Exchange-Correlation Energy =     -14.4613021417951124
    Empirical Dispersion Energy =           0.0000000000000000
    VV10 Nonlocal Energy =                  0.0000000000000000
    Total Energy =                       -151.5506619238686312

  Dipole Moment: [D]
     X:    -1.4727      Y:     0.8898      Z:    -0.0000     Total:     1.7206

    Molecular point group: c1

    Geometry (in Angstrom), charge = 0, multiplicity = 1:

       Center              X                  Y                   Z               Mass
    ------------   -----------------  -----------------  -----------------  -----------------
         O            0.025157987158    -0.015199938928    -0.726410000000    15.994914619570
         O            0.025157987158    -0.015199938928     0.726410000000    15.994914619570
         H            0.025810184446     0.944810539101    -0.894273058545     1.007825032230
         H           -0.824361210129    -0.462342416957     0.894273058545     1.007825032230

  Basis Set: CC-PVDZ
    Blend: CC-PVDZ

  -Total Gradient:
     Atom            X                  Y                   Z
    ------   -----------------  -----------------  -----------------
       1        0.000063042077    -0.001002332518     0.000223667569
       2        0.000916068232     0.000410172077    -0.000223581977
       3        0.000024228371     0.001155080981    -0.000360899448
       4       -0.001010700413    -0.000558472639     0.000360813702

  Vibration                       7                   8                   9
  Freq [cm^-1]                 335.2873            946.2095           1298.2115
  Irrep                           A                   A                   A
  Reduced mass [u]              1.0837             14.3895              1.1010
  Force const [mDyne/A]         0.0718              7.5905              1.0933

  Vibration                       10                  11                  12
  Freq [cm^-1]                1438.1634           3709.1375           3710.9760
  Irrep                           A                   A                   A
  Reduced mass [u]              1.0883              1.0677              1.0706
  Force const [mDyne/A]         1.3262              8.6547              8.6863

  ==> Thermochemistry Components <==

  Entropy, S
    Electronic S            0.000 [cal/(mol K)]        0.000 [J/(mol K)]       0.00000000 [mEh/K] (multiplicity = 1)
    Translational S        36.503 [cal/(mol K)]      152.728 [J/(mol K)]       0.05817083 [mEh/K] (mol. weight = 34.0055 [u], P = 101325.00 [Pa])
    Rotational S           18.022 [cal/(mol K)]       75.402 [J/(mol K)]       0.02871911 [mEh/K] (symmetry no. = 1)
    Vibrational S           1.393 [cal/(mol K)]        5.830 [J/(mol K)]       0.00222053 [mEh/K]
  Total S                  55.918 [cal/(mol K)]      233.960 [J/(mol K)]       0.08911047 [mEh/K]
  Correction S              0.000 [cal/(mol K)]        0.000 [J/(mol K)]       0.00000000 [mEh/K]

  Constant volume heat capacity, Cv
    Electronic Cv           0.000 [cal/(mol K)]        0.000 [J/(mol K)]       0.00000000 [mEh/K]
    Translational Cv        2.981 [cal/(mol K)]       12.472 [J/(mol K)]       0.00475022 [mEh/K]
    Rotational Cv           2.981 [cal/(mol K)]       12.472 [J/(mol K)]       0.00475022 [mEh/K]
    Vibrational Cv          2.287 [cal/(mol K)]        9.568 [J/(mol K)]       0.00364415 [mEh/K]
  Total Cv                  8.248 [cal/(mol K)]       34.511 [J/(mol K)]       0.01314459 [mEh/K]
  Correction Cv             0.000 [cal/(mol K)]        0.000 [J/(mol K)]       0.00000000 [mEh/K]

  Constant pressure heat capacity, Cp
    Electronic Cp           0.000 [cal/(mol K)]        0.000 [J/(mol K)]       0.00000000 [mEh/K]
    Translational Cp        4.968 [cal/(mol K)]       20.786 [J/(mol K)]       0.00791703 [mEh/K]
    Rotational Cp           2.981 [cal/(mol K)]       12.472 [J/(mol K)]       0.00475022 [mEh/K]
    Vibrational Cp          2.287 [cal/(mol K)]        9.568 [J/(mol K)]       0.00364415 [mEh/K]
  Total Cp                 10.236 [cal/(mol K)]       42.826 [J/(mol K)]       0.01631140 [mEh/K]
  Correction Cp             0.000 [cal/(mol K)]        0.000 [J/(mol K)]       0.00000000 [mEh/K]

  ==> Thermochemistry Energy Analysis <==

  Raw electronic energy, E0
  Total E0, Electronic energy at well bottom at 0 [K]                 -151.55066527 [Eh]

  Zero-point energy, ZPE_vib = Sum_i nu_i / 2
    Electronic ZPE          0.000 [kcal/mol]        0.000 [kJ/mol]       0.00000000 [Eh]
    Translational ZPE       0.000 [kcal/mol]        0.000 [kJ/mol]       0.00000000 [Eh]
    Rotational ZPE          0.000 [kcal/mol]        0.000 [kJ/mol]       0.00000000 [Eh]
    Vibrational ZPE        16.351 [kcal/mol]       68.414 [kJ/mol]       0.02605765 [Eh]        5718.993 [cm^-1]
  Correction ZPE           16.351 [kcal/mol]       68.414 [kJ/mol]       0.02605765 [Eh]        5718.993 [cm^-1]
  Total ZPE, Electronic energy at 0 [K]                               -151.52460762 [Eh]

  Thermal Energy, E (includes ZPE)
    Electronic E            0.000 [kcal/mol]        0.000 [kJ/mol]       0.00000000 [Eh]
    Translational E         0.889 [kcal/mol]        3.718 [kJ/mol]       0.00141628 [Eh]
    Rotational E            0.889 [kcal/mol]        3.718 [kJ/mol]       0.00141628 [Eh]
    Vibrational E          16.628 [kcal/mol]       69.572 [kJ/mol]       0.02649844 [Eh]
  Correction E             18.405 [kcal/mol]       77.009 [kJ/mol]       0.02933099 [Eh]
  Total E, Electronic energy at  298.15 [K]                           -151.52133428 [Eh]

  Enthalpy, H_trans = E_trans + k_B * T
    Electronic H            0.000 [kcal/mol]        0.000 [kJ/mol]       0.00000000 [Eh]
    Translational H         1.481 [kcal/mol]        6.197 [kJ/mol]       0.00236046 [Eh]
    Rotational H            0.889 [kcal/mol]        3.718 [kJ/mol]       0.00141628 [Eh]
    Vibrational H          16.628 [kcal/mol]       69.572 [kJ/mol]       0.02649844 [Eh]
  Correction H             18.998 [kcal/mol]       79.487 [kJ/mol]       0.03027517 [Eh]
  Total H, Enthalpy at  298.15 [K]                                    -151.52039009 [Eh]

  Gibbs free energy, G = H - T * S
    Electronic G            0.000 [kcal/mol]        0.000 [kJ/mol]       0.00000000 [Eh]
    Translational G        -9.402 [kcal/mol]      -39.338 [kJ/mol]      -0.01498317 [Eh]
    Rotational G           -4.484 [kcal/mol]      -18.763 [kJ/mol]      -0.00714633 [Eh]
    Vibrational G          16.213 [kcal/mol]       67.833 [kJ/mol]       0.02583638 [Eh]
  Correction G              2.326 [kcal/mol]        9.732 [kJ/mol]       0.00370689 [Eh]
  Total G, Free enthalpy at  298.15 [K]                               -151.54695838 [Eh]

*** Psi4 exiting successfully. Buy a developer a beer!
