 Gaussian 09, Revision E.01,
 Gaussian 09:  ES64L-G09RevE.01 30-Nov-2015

 -----------------------------------------------------
 #P b3lyp/6-31g* # SCF=(xqc) # POpt=() # int=ultrafine
 -----------------------------------------------------

 --------
 comment:
 --------
 Symbolic Z-matrix:
 Charge =  0 Multiplicity = 2

 SCF Done:  E(UB3LYP) =  -40.9618977696     A.U. after   12 cycles
 SCF Done:  E(UB3LYP) =  -40.9815981795     A.U. after   13 cycles
 SCF Done:  E(UB3LYP) =  -40.9974413418     A.U. after   13 cycles
 SCF Done:  E(UB3LYP) =  -41.0086441542     A.U. after   13 cycles
 SCF Done:  E(UB3LYP) =  -41.0103872998     A.U. after   13 cycles
 SCF Done:  E(UB3LYP) =  -41.0127887884     A.U. after   11 cycles
 SCF Done:  E(UB3LYP) =  -41.0133247667     A.U. after   11 cycles
 SCF Done:  E(UB3LYP) =  -41.0141488275     A.U. after   12 cycles
 SCF Done:  E(UB3LYP) =  -41.0144186580     A.U. after   11 cycles
 SCF Done:  E(UB3LYP) =  -41.0144452607     A.U. after    7 cycles
 SCF Done:  E(UB3LYP) =  -41.0143975174     A.U. after   12 cycles
 SCF Done:  E(UB3LYP) =  -41.0144524192     A.U. after    6 cycles
 SCF Done:  E(UB3LYP) =  -41.0144529830     A.U. after    6 cycles
 SCF Done:  E(UB3LYP) =  -41.0144510055     A.U. after   10 cycles
 SCF Done:  E(UB3LYP) =  -41.0144531186     A.U. after    5 cycles
 SCF Done:  E(UB3LYP) =  -41.0144539248     A.U. after    8 cycles
 SCF Done:  E(UB3LYP) =  -41.0144553724     A.U. after    7 cycles
 SCF Done:  E(UB3LYP) =  -41.0144582852     A.U. after   10 cycles
 SCF Done:  E(UB3LYP) =  -41.0144697678     A.U. after   10 cycles
 SCF Done:  E(UB3LYP) =  -41.0144710218     A.U. after    7 cycles
 Optimization completed.
    -- Stationary point found.

                         Standard orientation:
 ---------------------------------------------------------------------
 Center     Atomic      Atomic             Coordinates (Angstroms)
 Number     Number       Type             X           Y           Z
 ---------------------------------------------------------------------
      1          6           0       -0.589858    0.000095   -0.000070
      2          1           0       -0.604319    0.747639    0.783123
      3          1           0       -0.607604   -1.052051    0.254821
      4          1           0       -0.600148    0.305539   -1.038852
      5          1           0        2.305614   -0.001960   -0.000433
      6          1           0        3.045607    0.000265    0.001764
 ---------------------------------------------------------------------

 The electronic state is 2-A.
 Alpha  occ. eigenvalues --  -10.19524  -0.68442  -0.42841  -0.41946  -0.41930
 Alpha  occ. eigenvalues --   -0.22734
 Alpha virt. eigenvalues --    0.10437   0.12255   0.17991   0.17999   0.51884
 Alpha virt. eigenvalues --    0.54211   0.54230   0.60595   0.74960   0.91150
 Alpha virt. eigenvalues --    0.91173   0.96068   1.20280   1.64680   1.64686

  Beta  occ. eigenvalues --  -10.18125  -0.64414  -0.42727  -0.40993  -0.40977
  Beta virt. eigenvalues --   -0.05576   0.11442   0.13587   0.18538   0.18546
  Beta virt. eigenvalues --    0.55026   0.55046   0.55167   0.65050   0.77160
  Beta virt. eigenvalues --    0.91634   0.91656   0.98828   1.20587   1.71754

 Mulliken charges and spin densities:
               1          2
     1  C   -0.486805   1.140676
     2  H    0.165624  -0.051146
     3  H    0.165653  -0.051147
     4  H    0.165593  -0.051144
     5  H    0.006343  -0.001537
     6  H   -0.016408   0.014298
 Sum of Mulliken charges =  -0.00000   1.00000

 Dipole moment (field-independent basis, Debye):
    X=             -0.2115    Y=              0.0002    Z=             -0.0003  Tot=              0.2115
 Quadrupole moment (field-independent basis, Debye-Ang):
   XX=            -10.5636   YY=             -8.9957   ZZ=             -8.9987
   XY=              0.0053   XZ=             -0.0039   YZ=             -0.0000

 Normal termination of Gaussian 09 at Thu Sep  5 23:04:25 2019.
