 Gaussian 09, Revision E.01,
 Gaussian 09:  ES64L-G09RevE.01 30-Nov-2015

 ------------------------------------------------------
 #P b3lyp/cc-pvdz # SCF=(xqc) # POpt=() # int=ultrafine
 ------------------------------------------------------

 --------
 comment:
 --------
 Symbolic Z-matrix:
 Charge =  0 Multiplicity = 1

 SCF Done:  E(RB3LYP) =  -40.5162379848     A.U. after    8 cycles
 SCF Done:  E(RB3LYP) =  -40.5163487802     A.U. after    6 cycles
 Optimization completed.
    -- Stationary point found.

                         Standard orientation:
 ---------------------------------------------------------------------
 Center     Atomic      Atomic             Coordinates (Angstroms)
 Number     Number       Type             X           Y           Z
 ---------------------------------------------------------------------
      1          6           0        0.000000    0.000000    0.000000
      2          1           0        0.635167    0.635167    0.635167
      3          1           0       -0.635167   -0.635167    0.635167
      4          1           0       -0.635167    0.635167   -0.635167
      5          1           0        0.635167   -0.635167   -0.635167
 ---------------------------------------------------------------------

 The electronic state is 1-A1.
 Alpha  occ. eigenvalues --  -10.17473  -0.69022  -0.38842  -0.38842  -0.38842
 Alpha virt. eigenvalues --    0.07297   0.14281   0.14281   0.14281   0.41372
 Alpha virt. eigenvalues --    0.41372   0.41372   0.64985   0.64985   0.64985
 Alpha virt. eigenvalues --    0.67681   0.90081   0.90081   1.04146   1.41468

 Mulliken charges:
               1
     1  C   -0.127739
     2  H    0.031935
     3  H    0.031935
     4  H    0.031935
     5  H    0.031935
 Sum of Mulliken charges =  -0.00000

 Dipole moment (field-independent basis, Debye):
    X=              0.0000    Y=              0.0000    Z=              0.0000  Tot=              0.0000
 Quadrupole moment (field-independent basis, Debye-Ang):
   XX=             -8.3288   YY=             -8.3288   ZZ=             -8.3288
   XY=              0.0000   XZ=              0.0000   YZ=              0.0000

 Normal termination of Gaussian 09 at Fri Aug 23 16:55:41 2019.
