 Gaussian 09, Revision E.01,
 Gaussian 09:  ES64L-G09RevE.01 30-Nov-2015

 -----------------------------------------------------
 #P b3lyp/6-31g* # SCF=(xqc) # POpt=() # int=ultrafine
 -----------------------------------------------------

 --------
 comment:
 --------
 Symbolic Z-matrix:
 Charge =  0 Multiplicity = 2

 SCF Done:  E(UB3LYP) =  -41.0069661230     A.U. after   12 cycles
 SCF Done:  E(UB3LYP) =  -41.0088258770     A.U. after   11 cycles
 SCF Done:  E(UB3LYP) =  -41.0090133006     A.U. after   11 cycles
 SCF Done:  E(UB3LYP) =  -41.0090216314     A.U. after    7 cycles
 SCF Done:  E(UB3LYP) =  -41.0090385182     A.U. after    8 cycles
 SCF Done:  E(UB3LYP) =  -41.0090499270     A.U. after    8 cycles
 Optimization completed.
    -- Stationary point found.

                         Standard orientation:
 ---------------------------------------------------------------------
 Center     Atomic      Atomic             Coordinates (Angstroms)
 Number     Number       Type             X           Y           Z
 ---------------------------------------------------------------------
      1          6           0       -0.225699   -0.000055    0.000021
      2          1           0       -0.560699    0.490725    0.916520
      3          1           0       -0.559217   -1.039569   -0.034084
      4          1           0       -0.558089    0.548927   -0.883894
      5          1           0        0.931814    0.000379    0.001053
      6          1           0        2.100385   -0.000131    0.000280
 ---------------------------------------------------------------------

 The electronic state is 2-A.
 Alpha  occ. eigenvalues --  -10.18277  -0.70579  -0.44576  -0.40337  -0.40332
 Alpha  occ. eigenvalues --   -0.24675
 Alpha virt. eigenvalues --    0.12211   0.16891   0.16894   0.23787   0.52478
 Alpha virt. eigenvalues --    0.52480   0.54587   0.72958   0.88992   0.88999
 Alpha virt. eigenvalues --    0.92648   0.95132   1.21223   1.64045   1.64049

  Beta  occ. eigenvalues --  -10.17748  -0.69257  -0.40718  -0.39991  -0.39986
  Beta virt. eigenvalues --   -0.08170   0.12589   0.17222   0.17224   0.26155
  Beta virt. eigenvalues --    0.52590   0.52592   0.56635   0.83743   0.89419
  Beta virt. eigenvalues --    0.89426   0.94019   0.95591   1.22912   1.65655

 Mulliken charges and spin densities:
               1          2
     1  C   -0.558902   0.290164
     2  H    0.168154  -0.005309
     3  H    0.168172  -0.005333
     4  H    0.168134  -0.005335
     5  H    0.074021  -0.099024
     6  H   -0.019579   0.824837
 Sum of Mulliken charges =  -0.00000   1.00000

 Dipole moment (field-independent basis, Debye):
    X=             -0.5854    Y=              0.0001    Z=             -0.0004  Tot=              0.5854
 Quadrupole moment (field-independent basis, Debye-Ang):
   XX=            -10.9786   YY=             -9.4047   ZZ=             -9.4055
   XY=              0.0004   XZ=             -0.0015   YZ=              0.0001

 Normal termination of Gaussian 09 at Fri Aug 23 16:08:32 2019.
