 Gaussian 09, Revision E.01,
 Gaussian 09:  ES64L-G09RevE.01 30-Nov-2015

 -----------------------------------------------------
 #P b3lyp/6-31g* # SCF=(xqc) # POpt=() # int=ultrafine
 -----------------------------------------------------

 --------
 comment:
 --------
 Symbolic Z-matrix:
 Charge =  0 Multiplicity = 2

 SCF Done:  E(UB3LYP) =  -41.0137645302     A.U. after   12 cycles
 SCF Done:  E(UB3LYP) =  -41.0140801692     A.U. after   10 cycles
 SCF Done:  E(UB3LYP) =  -41.0140960568     A.U. after    8 cycles
 SCF Done:  E(UB3LYP) =  -41.0140993580     A.U. after    7 cycles
 SCF Done:  E(UB3LYP) =  -41.0141042178     A.U. after    7 cycles
 SCF Done:  E(UB3LYP) =  -41.0141119028     A.U. after    7 cycles
 SCF Done:  E(UB3LYP) =  -41.0141202702     A.U. after    8 cycles
 SCF Done:  E(UB3LYP) =  -41.0141207993     A.U. after    7 cycles
 Optimization completed.
    -- Stationary point found.

                         Standard orientation:
 ---------------------------------------------------------------------
 Center     Atomic      Atomic             Coordinates (Angstroms)
 Number     Number       Type             X           Y           Z
 ---------------------------------------------------------------------
      1          6           0       -0.238907    0.000005    0.000008
      2          1           0       -0.591160    0.993143    0.290295
      3          1           0       -0.591329   -0.747950    0.714878
      4          1           0       -0.591257   -0.245112   -1.005209
      5          1           0        0.876450   -0.000112   -0.000026
      6          1           0        2.330736    0.000001    0.000015
 ---------------------------------------------------------------------

 The electronic state is 2-A.
 Alpha  occ. eigenvalues --  -10.17402  -0.69840  -0.42351  -0.39568  -0.39567
 Alpha  occ. eigenvalues --   -0.27901
 Alpha virt. eigenvalues --    0.12489   0.17259   0.17260   0.23237   0.52914
 Alpha virt. eigenvalues --    0.52915   0.53699   0.73985   0.89355   0.89357
 Alpha virt. eigenvalues --    0.93293   0.96546   1.17709   1.64834   1.64834

  Beta  occ. eigenvalues --  -10.17136  -0.69176  -0.39737  -0.39397  -0.39396
  Beta virt. eigenvalues --   -0.08593   0.12774   0.17420   0.17420   0.25148
  Beta virt. eigenvalues --    0.52935   0.52935   0.54879   0.88132   0.89576
  Beta virt. eigenvalues --    0.89577   0.93643   0.97257   1.18965   1.65611

 Mulliken charges and spin densities:
               1          2
     1  C   -0.590722   0.142503
     2  H    0.162091  -0.001811
     3  H    0.162090  -0.001809
     4  H    0.162086  -0.001809
     5  H    0.112873  -0.056016
     6  H   -0.008418   0.918943
 Sum of Mulliken charges =  -0.00000   1.00000

 Dipole moment (field-independent basis, Debye):
    X=             -0.2990    Y=             -0.0000    Z=             -0.0000  Tot=              0.2990
 Quadrupole moment (field-independent basis, Debye-Ang):
   XX=            -10.3099   YY=             -9.4845   ZZ=             -9.4846
   XY=              0.0000   XZ=             -0.0001   YZ=             -0.0000

 Normal termination of Gaussian 09 at Fri Aug 23 16:08:59 2019.
