 Gaussian 09, Revision E.01,
 Gaussian 09:  ES64L-G09RevE.01 30-Nov-2015

 --------------------------------------------------------------------
 #P b3lyp/cc-pvdz # SCF=(xqc) # Freq=() # IOp(7/33=1) # int=ultrafine
 --------------------------------------------------------------------

 --------
 comment:
 --------
 Symbolic Z-matrix:
 Charge =  0 Multiplicity = 1

                         Standard orientation:
 ---------------------------------------------------------------------
 Center     Atomic      Atomic             Coordinates (Angstroms)
 Number     Number       Type             X           Y           Z
 ---------------------------------------------------------------------
      1          6           0        0.000000    0.000000    0.000000
      2          1           0        0.635167    0.635167    0.635167
      3          1           0       -0.635167   -0.635167    0.635167
      4          1           0       -0.635167    0.635167   -0.635167
      5          1           0        0.635167   -0.635167   -0.635167
 ---------------------------------------------------------------------

 SCF Done:  E(RB3LYP) =  -40.5163487805     A.U. after    8 cycles

 The electronic state is 1-A1.
 Alpha  occ. eigenvalues --  -10.17473  -0.69022  -0.38842  -0.38842  -0.38842
 Alpha virt. eigenvalues --    0.07297   0.14281   0.14281   0.14281   0.41372
 Alpha virt. eigenvalues --    0.41372   0.41372   0.64985   0.64985   0.64985
 Alpha virt. eigenvalues --    0.67681   0.90081   0.90081   1.04146   1.41468

 Mulliken charges:
               1
     1  C   -0.127739
     2  H    0.031935
     3  H    0.031935
     4  H    0.031935
     5  H    0.031935
 Sum of Mulliken charges =  -0.00000

 Dipole moment (field-independent basis, Debye):
    X=              0.0000    Y=             -0.0000    Z=              0.0000  Tot=              0.0000
 Quadrupole moment (field-independent basis, Debye-Ang):
   XX=             -8.3288   YY=             -8.3288   ZZ=             -8.3288
   XY=              0.0000   XZ=             -0.0000   YZ=              0.0000

  Exact polarizability:  13.413  -0.000  13.413  -0.000  -0.000  13.413
 Approx polarizability:  16.318  -0.000  16.318  -0.000   0.000  16.318

                      1                      2                      3
                     T2                     T2                     T2
 Frequencies --   1310.2921              1310.2921              1310.2921
 Red. masses --      1.1791                 1.1791                 1.1791
 Frc consts  --      1.1927                 1.1927                 1.1927
 IR Inten    --     11.9749                11.9749                11.9749

                      4                      5                      6
                      E                      E                     A1
 Frequencies --   1531.2076              1531.2076              3025.2246
 Red. masses --      1.0078                 1.0078                 1.0078
 Frc consts  --      1.3922                 1.3922                 5.4344
 IR Inten    --      0.0000                 0.0000                 0.0000

                      7                      8                      9
                     T2                     T2                     T2
 Frequencies --   3146.6885              3146.6885              3146.6885
 Red. masses --      1.1016                 1.1016                 1.1016
 Frc consts  --      6.4265                 6.4265                 6.4265
 IR Inten    --     20.9698                20.9698                20.9698

 - Thermochemistry -
 -------------------
 Temperature   298.150 Kelvin.  Pressure   1.00000 Atm.
 Atom     1 has atomic number  6 and mass  12.00000

 Molecular mass:    16.03130 amu.
 Principal axes and moments of inertia in atomic units:
                           1         2         3
     Eigenvalues --    11.61579  11.61579  11.61579
           X            0.70711   0.70711   0.00000
           Y           -0.70711   0.70711   0.00000
           Z            0.00000  -0.00000   1.00000
 This molecule is a spherical top.
 Rotational symmetry number 12.
 Rotational temperatures (Kelvin)      7.45656     7.45656     7.45656
 Rotational constants (GHZ):         155.36966   155.36966   155.36966
 Zero-point vibrational energy     116388.2 (Joules/Mol)
                                   27.81744 (Kcal/Mol)
 Vibrational temperatures:   1885.22  1885.22  1885.22  2203.06  2203.06
          (Kelvin)           4352.62  4527.38  4527.38  4527.38

 Zero-point correction=                           0.044330 (Hartree/Particle)
 Thermal correction to Energy=                    0.047203
 Thermal correction to Enthalpy=                  0.048147
 Thermal correction to Gibbs Free Energy=         0.026987
 Sum of electronic and zero-point Energies=            -40.472019
 Sum of electronic and thermal Energies=               -40.469145
 Sum of electronic and thermal Enthalpies=             -40.468201
 Sum of electronic and thermal Free Energies=          -40.489361

                     E (Thermal)             CV                S
                      KCal/Mol        Cal/Mol-Kelvin    Cal/Mol-Kelvin
 Total                   29.621              6.526             44.535
 Electronic               0.000              0.000              0.000
 Translational            0.889              2.981             34.261
 Rotational               0.889              2.981             10.175
 Vibrational             27.843              0.564              0.099

 Optimization completed.
    -- Stationary point found.
 Normal termination of Gaussian 09 at Thu Sep  5 22:26:40 2019.
