 Gaussian 09, Revision E.01,
 Gaussian 09:  ES64L-G09RevE.01 30-Nov-2015

 -----------------------------------------------------
 #P b3lyp/6-31g* # SCF=(xqc) # POpt=() # int=ultrafine
 -----------------------------------------------------

 --------
 comment:
 --------
 Symbolic Z-matrix:
 Charge =  0 Multiplicity = 2

 SCF Done:  E(UB3LYP) =  -41.0168416046     A.U. after   11 cycles
 SCF Done:  E(UB3LYP) =  -41.0168984319     A.U. after    8 cycles
 SCF Done:  E(UB3LYP) =  -41.0169005010     A.U. after    7 cycles
 SCF Done:  E(UB3LYP) =  -41.0169013826     A.U. after    7 cycles
 SCF Done:  E(UB3LYP) =  -41.0169033406     A.U. after    7 cycles
 SCF Done:  E(UB3LYP) =  -41.0169055830     A.U. after    7 cycles
 SCF Done:  E(UB3LYP) =  -41.0169114352     A.U. after    8 cycles
 SCF Done:  E(UB3LYP) =  -41.0169131067     A.U. after    8 cycles
 Optimization completed.
    -- Stationary point found.

                         Standard orientation:
 ---------------------------------------------------------------------
 Center     Atomic      Atomic             Coordinates (Angstroms)
 Number     Number       Type             X           Y           Z
 ---------------------------------------------------------------------
      1          6           0       -0.260197    0.000018    0.000041
      2          1           0       -0.620973    0.973454    0.342764
      3          1           0       -0.620334   -0.784026    0.671450
      4          1           0       -0.619929   -0.189969   -1.014737
      5          1           0        0.841209    0.000415    0.000202
      6          1           0        2.581209    0.000016    0.000077
 ---------------------------------------------------------------------

 The electronic state is 2-A.
 Alpha  occ. eigenvalues --  -10.16928  -0.69349  -0.40712  -0.39141  -0.39137
 Alpha  occ. eigenvalues --   -0.29920
 Alpha virt. eigenvalues --    0.12533   0.17508   0.17509   0.21874   0.53194
 Alpha virt. eigenvalues --    0.53195   0.53195   0.76005   0.89612   0.89617
 Alpha virt. eigenvalues --    0.93449   0.96412   1.14490   1.65328   1.65329

  Beta  occ. eigenvalues --  -10.16799  -0.69029  -0.39207  -0.39059  -0.39055
  Beta virt. eigenvalues --   -0.08078   0.12792   0.17581   0.17583   0.23431
  Beta virt. eigenvalues --    0.53183   0.53184   0.53982   0.89718   0.89723
  Beta virt. eigenvalues --    0.92727   0.93621   0.97032   1.14995   1.65702

 Mulliken charges and spin densities:
               1          2
     1  C   -0.612058   0.071635
     2  H    0.158720  -0.000579
     3  H    0.158715  -0.000583
     4  H    0.158697  -0.000583
     5  H    0.135883  -0.030626
     6  H    0.000043   0.960737
 Sum of Mulliken charges =   0.00000   1.00000

 Dipole moment (field-independent basis, Debye):
    X=             -0.1012    Y=             -0.0001    Z=             -0.0001  Tot=              0.1012
 Quadrupole moment (field-independent basis, Debye-Ang):
   XX=             -9.7889   YY=             -9.5182   ZZ=             -9.5190
   XY=             -0.0001   XZ=             -0.0004   YZ=             -0.0000

 Normal termination of Gaussian 09 at Thu Sep  5 23:08:40 2019.
