                               Psi4 1.3.2 release

  ==> Input File <==

--------------------------------------------------------------------------
#!
memory 1 GB

molecule {

0 2
C
H  1    R1
H  1    R2  2    A2
H  1    R3  2    A3  3    D3
R1   =   1.082548
R2   =   1.082548
A2   = 120.000000
R3   =   1.082548
A3   = 120.000000
D3   = 180.000000
}
set basis cc-pvdz
set scf_type pk
set reference uks
set mp2_type conv
optimize('B3LYP')
--------------------------------------------------------------------------

    Molecular point group: c2v
  Charge       = 0
  Multiplicity = 2
  Basis Set: CC-PVDZ
    Blend: CC-PVDZ
  @UKS Final Energy:   -39.83893015722669
    Total Energy =                        -39.8389301572266916
    Molecular point group: c2v
  Basis Set: CC-PVDZ
    Blend: CC-PVDZ
  Charge       = 0
  Multiplicity = 2
  Basis Set: CC-PVDZ
    Blend: CC-PVDZ

    Orbital Energies [Eh]
    ---------------------

    Alpha Occupied:

       1A1   -10.198914     2A1    -0.681707     1B2    -0.415919
       3A1    -0.415918     1B1    -0.229737

    Alpha Virtual:

       4A1     0.072892     5A1     0.141683     2B2     0.141683
       6A1     0.436068     3B2     0.436070     2B1     0.473462
       7A1     0.487661     8A1     0.654988     4B2     0.654990
       9A1     0.854969     1A2     0.961124     3B1     0.961125
       5B2     1.356104     6B2     1.451245    10A1     1.451247
      11A1     1.486162     4B1     1.595463     5B1     1.838294
       2A2     1.838301    12A1     2.080296     7B2     2.080300
      13A1     2.444217     8B2     2.492931    14A1     2.492931

    Beta Occupied:

       1A1   -10.184637     2A1    -0.640931     1B2    -0.405874
       3A1    -0.405872

    Beta Virtual:

       1B1    -0.059883     4A1     0.083573     5A1     0.145819
       2B2     0.145819     6A1     0.439062     3B2     0.439064
       7A1     0.515783     2B1     0.547964     8A1     0.662597
       4B2     0.662598     9A1     0.883591     1A2     0.998836
       3B1     0.998837     5B2     1.352497     6B2     1.454518
      10A1     1.454520    11A1     1.551307     4B1     1.607087
       5B1     1.868662     2A2     1.868668    12A1     2.083311
       7B2     2.083315    13A1     2.449899     8B2     2.500514
      14A1     2.500515

    Final Occupation by Irrep:
             A1    A2    B1    B2
    DOCC [     3,    0,    0,    1 ]
    SOCC [     0,    0,    1,    0 ]

  @UKS Final Energy:   -39.83906430753109

   => Energetics <=

    Nuclear Repulsion Energy =              9.5692451108824415
    One-Electron Energy =                 -71.4602754571435526
    Two-Electron Energy =                  27.2982730239339837
    DFT Exchange-Correlation Energy =      -5.2463069852039697
    Empirical Dispersion Energy =           0.0000000000000000
    VV10 Nonlocal Energy =                  0.0000000000000000
    Total Energy =                        -39.8390643075311033

  UHF NO Occupations:
  HONO-2 :    2 A1 1.9997294
  HONO-1 :    3 A1 1.9986856
  HONO-0 :    1 B1 1.0000000
  LUNO+0 :    4 A1 0.0013144
  LUNO+1 :    5 A1 0.0002706
  LUNO+2 :    2 B2 0.0002706
  LUNO+3 :    6 A1 0.0000002

Computation Completed

Properties will be evaluated at   0.000000,   0.000000,   0.000000 [a0]

Properties computed using the SCF density matrix

  Nuclear Dipole Moment: [e a0]
     X:     0.0000      Y:     0.0000      Z:     0.0000

  Electronic Dipole Moment: [e a0]
     X:     0.0000      Y:     0.0000      Z:    -0.0000

  Dipole Moment: [e a0]
     X:     0.0000      Y:     0.0000      Z:     0.0000     Total:     0.0000

  Dipole Moment: [D]
     X:     0.0000      Y:     0.0000      Z:     0.0000     Total:     0.0000

*** tstop() called on blueslogin2 at Fri Aug 23 15:35:50 2019
Module time:
	user time   =       2.63 seconds =       0.04 minutes
	system time =       0.09 seconds =       0.00 minutes
	total time  =          3 seconds =       0.05 minutes
Total time:
	user time   =       7.09 seconds =       0.12 minutes
	system time =       0.28 seconds =       0.00 minutes
	total time  =          8 seconds =       0.13 minutes

*** tstart() called on blueslogin2
*** at Fri Aug 23 15:35:50 2019

         ------------------------------------------------------------
                                   SCF GRAD
                          Rob Parrish, Justin Turney,
                       Andy Simmonett, and Alex Sokolov
         ------------------------------------------------------------

  ==> Geometry <==

    Molecular point group: c2v
    Full point group: C2v

    Geometry (in Angstrom), charge = 0, multiplicity = 2:

       Center              X                  Y                   Z               Mass
    ------------   -----------------  -----------------  -----------------  -----------------
         C            0.000000000000     0.000000000000    -0.000000791865    12.000000000000
         H            0.000000000000     0.000000000000     1.091179743993     1.007825032230
         H            0.000000000000     0.944989417171    -0.545585157697     1.007825032230
         H            0.000000000000    -0.944989417171    -0.545585157697     1.007825032230

  Nuclear repulsion =    9.569245110882441

  ==> Basis Set <==

  Basis Set: CC-PVDZ
    Blend: CC-PVDZ
    Number of shells: 15
    Number of basis function: 29
    Number of Cartesian functions: 30
    Spherical Harmonics?: true
    Max angular momentum: 2

  ==> DirectJKGrad: Integral-Direct SCF Gradients <==

    Gradient:                    1
    J tasked:                  Yes
    K tasked:                  Yes
    wK tasked:                  No
    Integrals threads:           1
    Schwarz Cutoff:          0E+00

  ==> DFT Potential <==

   => Composite Functional: B3LYP <=

    B3LYP Hyb-GGA Exchange-Correlation Functional

    P. J. Stephens, F. J. Devlin, C. F. Chabalowski, and M. J. Frisch, J. Phys. Chem. 98, 11623 (1994)

    Deriv               =              1
    GGA                 =           TRUE
    Meta                =          FALSE

    Exchange Hybrid     =           TRUE
    MP2 Hybrid          =          FALSE

   => Exchange Functionals <=

    0.0800   Slater exchange
    0.7200         Becke 88

   => Exact (HF) Exchange <=

    0.2000               HF

   => Correlation Functionals <=

    0.1900   Vosko, Wilk & Nusair (VWN5_RPA)
    0.8100   Lee, Yang & Parr

   => Molecular Quadrature <=

    Radial Scheme          =       TREUTLER
    Pruning Scheme         =           FLAT
    Nuclear Scheme         =       TREUTLER

    BS radius alpha        =              1
    Pruning alpha          =              1
    Radial Points          =             75
    Spherical Points       =            302
    Total Points           =          88860
    Total Blocks           =            724
    Max Points             =            256
    Max Functions          =             29

  -Total Gradient:
     Atom            X                  Y                   Z
    ------   -----------------  -----------------  -----------------
       1        0.000000000000     0.000000000000    -0.000007545097
       2        0.000000000000     0.000000000000     0.000292375709
       3       -0.000000000000     0.000251471919    -0.000144735777
       4        0.000000000000    -0.000251471919    -0.000144735777

*** tstop() called on blueslogin2 at Fri Aug 23 15:35:50 2019
Module time:
	user time   =       0.73 seconds =       0.01 minutes
	system time =       0.01 seconds =       0.00 minutes
	total time  =          0 seconds =       0.00 minutes
Total time:
	user time   =       7.82 seconds =       0.13 minutes
	system time =       0.29 seconds =       0.00 minutes
	total time  =          8 seconds =       0.13 minutes

			-----------------------------------------
			 OPTKING 2.0: for geometry optimizations
			  - R.A. King,  Bethel University
			-----------------------------------------

	Previous internal coordinate definitions found.
	---Fragment 1 Geometry and Gradient---
	 C           0.0000000000        0.0000000000       -0.0000014964
	 H           0.0000000000        0.0000000000        2.0620308698
	 H           0.0000000000        1.7857711899       -1.0310065262
	 H           0.0000000000       -1.7857711899       -1.0310065262
	             0.0000000000        0.0000000000       -0.0000075451
	             0.0000000000        0.0000000000        0.0002923757
	            -0.0000000000        0.0002514719       -0.0001447358
	             0.0000000000       -0.0002514719       -0.0001447358

	---Fragment 1 Intrafragment Coordinates---
	 - Coordinate -           - BOHR/RAD -       - ANG/DEG -
	 R(1,2)           =         2.062032	       1.091181
	 R(1,3)           =         2.062026	       1.091177
	 R(1,4)           =         2.062026	       1.091177
	 B(2,1,3)         =         2.094391	     119.999749
	 B(2,1,4)         =         2.094391	     119.999749
	 B(3,1,4)         =         2.094404	     120.000503

	Current energy   :       -39.8390643075

	Energy change for the previous step:
		Projected    :        -0.0002846801
		Actual       :        -0.0001341503

	Performing BFGS update.
	Previous computed or guess Hessian on step 1.
	Steps to be used in Hessian update: 1
	Taking RFO optimization step.
	Going to follow RFO solution 1.
	Using RFO vector 1.
	Norm of target step-size    0.00134
	Projected energy change by RFO approximation:        -0.0000006795

	Back-transformation to cartesian coordinates...
	Successfully converged to displaced geometry.

	--- Internal Coordinate Step in ANG or DEG, aJ/ANG or AJ/DEG ---
	 ---------------------------------------------------------------------------
	   Coordinate                Previous        Force       Change         New
	   ----------                --------       ------       ------       ------
	    1 R(1,2)          =      1.091181    -0.002418    -0.000414     1.090766
	    2 R(1,3)          =      1.091177    -0.002386    -0.000409     1.090768
	    3 R(1,4)          =      1.091177    -0.002386    -0.000409     1.090768
	    4 B(2,1,3)        =    119.999749     0.000000     0.000327   120.000076
	    5 B(2,1,4)        =    119.999749     0.000000     0.000327   120.000076
	    6 B(3,1,4)        =    120.000503    -0.000000    -0.000654   119.999849
	 ---------------------------------------------------------------------------
	Successfully symmetrized geometry.

  ==> Convergence Check <==

  Measures of convergence in internal coordinates in au.
  Criteria marked as inactive (o), active & met (*), and active & unmet ( ).
  ---------------------------------------------------------------------------------------------
   Step     Total Energy     Delta E     MAX Force     RMS Force      MAX Disp      RMS Disp
  ---------------------------------------------------------------------------------------------
    Convergence Criteria    1.00e-06 *    3.00e-04 *             o    1.20e-03 *             o
  ---------------------------------------------------------------------------------------------
      2     -39.83906431   -1.34e-04      2.94e-04 *    2.06e-04 o    7.83e-04 *    5.49e-04 o  ~
  ---------------------------------------------------------------------------------------------

  **** Optimization is complete! (in 2 steps) ****

  ==> Optimization Summary <==

  Measures of convergence in internal coordinates in au.
  --------------------------------------------------------------------------------------------------------------- ~
   Step         Total Energy             Delta E       MAX Force       RMS Force        MAX Disp        RMS Disp  ~
  --------------------------------------------------------------------------------------------------------------- ~
      1     -39.838930157227    -39.838930157227      0.00582651      0.00411885      0.01631313      0.01153200  ~
      2     -39.839064307531     -0.000134150304      0.00029354      0.00020570      0.00078276      0.00054854  ~
  --------------------------------------------------------------------------------------------------------------- ~

	Writing optimization data to binary file.
	Final energy is    -39.8390643075311
	Final (previous) structure:
	Cartesian Geometry (in Angstrom)
	    C     0.0000000000   0.0000000000  -0.0000007919
	    H     0.0000000000   0.0000000000   1.0911797397
	    H     0.0000000000   0.9449894135  -0.5455851556
	    H     0.0000000000  -0.9449894135  -0.5455851556
	Saving final (previous) structure.
			--------------------------
			 OPTKING Finished Execution
			--------------------------

    Final optimized geometry and variables:
    Molecular point group: c2v
    Full point group: C2v

    Geometry (in Angstrom), charge = 0, multiplicity = 2:

    C
    H             1          R1
    H             1          R2      2          A2
    H             1          R3      2          A3      3          D3

    A2        =  119.9997485975
    A3        =  119.9997485975
    D3        = -180.0000000000
    R1        =    1.0911805359
    R2        =    1.0911770245
    R3        =    1.0911770245

	Removing binary optimization data file.
	Cleaning optimization helper files.

    Psi4 stopped on: Friday, 23 August 2019 03:35PM
    Psi4 wall time for execution: 0:00:08.22

*** Psi4 exiting successfully. Buy a developer a beer!
