 Gaussian 09, Revision E.01,
 Gaussian 09:  ES64L-G09RevE.01 30-Nov-2015

 -----------------------------------------------------
 #P b3lyp/6-31g* # SCF=(xqc) # POpt=() # int=ultrafine
 -----------------------------------------------------

 --------
 comment:
 --------
 Symbolic Z-matrix:
 Charge =  0 Multiplicity = 2

 SCF Done:  E(UB3LYP) =  -41.0110837038     A.U. after   12 cycles
 SCF Done:  E(UB3LYP) =  -41.0118529343     A.U. after   11 cycles
 SCF Done:  E(UB3LYP) =  -41.0119034865     A.U. after   10 cycles
 SCF Done:  E(UB3LYP) =  -41.0119090623     A.U. after    8 cycles
 SCF Done:  E(UB3LYP) =  -41.0119193685     A.U. after    7 cycles
 SCF Done:  E(UB3LYP) =  -41.0119322003     A.U. after    8 cycles
 SCF Done:  E(UB3LYP) =  -41.0119353782     A.U. after    8 cycles
 Optimization completed.
    -- Stationary point found.

                         Standard orientation:
 ---------------------------------------------------------------------
 Center     Atomic      Atomic             Coordinates (Angstroms)
 Number     Number       Type             X           Y           Z
 ---------------------------------------------------------------------
      1          6           0       -0.230600   -0.000001    0.000010
      2          1           0       -0.575673    0.907019    0.502350
      3          1           0       -0.575873   -0.888520    0.534257
      4          1           0       -0.575749   -0.018383   -1.036647
      5          1           0        0.899734   -0.000104   -0.000042
      6          1           0        2.211163   -0.000009    0.000025
 ---------------------------------------------------------------------

 The electronic state is 2-A.
 Alpha  occ. eigenvalues --  -10.17788  -0.70199  -0.43419  -0.39907  -0.39907
 Alpha  occ. eigenvalues --   -0.26441
 Alpha virt. eigenvalues --    0.12382   0.17080   0.17080   0.23685   0.52707
 Alpha virt. eigenvalues --    0.52707   0.54093   0.73314   0.89172   0.89173
 Alpha virt. eigenvalues --    0.92999   0.95945   1.19652   1.64465   1.64465

  Beta  occ. eigenvalues --  -10.17412  -0.69256  -0.40175  -0.39664  -0.39663
  Beta virt. eigenvalues --   -0.08519   0.12701   0.17312   0.17313   0.25807
  Beta virt. eigenvalues --    0.52762   0.52762   0.55612   0.86174   0.89483
  Beta virt. eigenvalues --    0.89484   0.93607   0.96453   1.21186   1.65581

 Mulliken charges and spin densities:
               1          2
     1  C   -0.575730   0.202677
     2  H    0.164793  -0.003099
     3  H    0.164794  -0.003096
     4  H    0.164789  -0.003096
     5  H    0.095671  -0.075033
     6  H   -0.014317   0.881647
 Sum of Mulliken charges =  -0.00000   1.00000

 Dipole moment (field-independent basis, Debye):
    X=             -0.4377    Y=              0.0000    Z=             -0.0000  Tot=              0.4377
 Quadrupole moment (field-independent basis, Debye-Ang):
   XX=            -10.6421   YY=             -9.4524   ZZ=             -9.4525
   XY=              0.0001   XZ=             -0.0001   YZ=             -0.0000

 Normal termination of Gaussian 09 at Fri Aug 23 16:08:45 2019.
