                               Psi4 1.3.2 release

  ==> Input File <==

--------------------------------------------------------------------------
#!
memory 1 GB

molecule {

0 1
H    0.000000   0.000000  -0.380782
H    0.000000   0.000000   0.380782
}
set basis cc-pvdz
set scf_type pk
set reference rks
set mp2_type conv
_, wfn = frequency('B3LYP', return_wfn=True)
hess = wfn.hessian()
hess.name = 'Hessian'
hess.print_out()
--------------------------------------------------------------------------

    Molecular point group: d2h
  Charge       = 0
  Multiplicity = 1
  Basis Set: CC-PVDZ
    Blend: CC-PVDZ
  @RKS Final Energy:    -1.17360205566243
    Total Energy =                         -1.1736020556624278
    Molecular point group: d2h
  Basis Set: CC-PVDZ
    Blend: CC-PVDZ
  Basis Set: CC-PVDZ
    Blend: CC-PVDZ
  @RKS Final Energy:    -1.17360205566243
    Total Energy =                         -1.1736020556624278
  Basis Set: CC-PVDZ
    Blend: CC-PVDZ
  Basis Set: CC-PVDZ
    Blend: CC-PVDZ
  @RKS Final Energy:    -1.17359386553672
    Total Energy =                         -1.1735938655367246
  Basis Set: CC-PVDZ
    Blend: CC-PVDZ
    Molecular point group: d2h
  Charge       = 0
  Multiplicity = 1
  Basis Set: CC-PVDZ
    Blend: CC-PVDZ

    Orbital Energies [Eh]
    ---------------------

    Doubly Occupied:

       1Ag    -0.426488

  @RKS Final Energy:    -1.17359217306983

   => Energetics <=

    Nuclear Repulsion Energy =              0.6982733957935993
    One-Electron Energy =                  -2.4804414650577495
    Two-Electron Energy =                   1.1765432112536041
    DFT Exchange-Correlation Energy =      -0.5679673150592803
    Empirical Dispersion Energy =           0.0000000000000000
    VV10 Nonlocal Energy =                  0.0000000000000000
    Total Energy =                         -1.1735921730698267

  Dipole Moment: [D]
     X:     0.0000      Y:     0.0000      Z:     0.0000     Total:     0.0000

    Molecular point group: d2h

    Geometry (in Angstrom), charge = 0, multiplicity = 1:

       Center              X                  Y                   Z               Mass
    ------------   -----------------  -----------------  -----------------  -----------------
         H            0.000000000000     0.000000000000    -0.378918353368     1.007825032230
         H            0.000000000000     0.000000000000     0.378918353368     1.007825032230

  Basis Set: CC-PVDZ
    Blend: CC-PVDZ

  -Total Gradient:
     Atom            X                  Y                   Z
    ------   -----------------  -----------------  -----------------
       1        0.000000000000     0.000000000000     0.002705938576
       2        0.000000000000     0.000000000000    -0.002705938576

  Vibration                       6
  Freq [cm^-1]                4370.7483
  Irrep                           Ag
  Reduced mass [u]              1.0078
  Force const [mDyne/A]        11.3435

  ==> Thermochemistry Components <==

  Entropy, S
    Electronic S            0.000 [cal/(mol K)]        0.000 [J/(mol K)]       0.00000000 [mEh/K] (multiplicity = 1)
    Translational S        28.080 [cal/(mol K)]      117.488 [J/(mol K)]       0.04474872 [mEh/K] (mol. weight = 2.0157 [u], P = 101325.00 [Pa])
    Rotational S            3.151 [cal/(mol K)]       13.185 [J/(mol K)]       0.00502173 [mEh/K] (symmetry no. = 2)
    Vibrational S           0.000 [cal/(mol K)]        0.000 [J/(mol K)]       0.00000000 [mEh/K]
  Total S                  31.231 [cal/(mol K)]      130.672 [J/(mol K)]       0.04977045 [mEh/K]
  Correction S              0.000 [cal/(mol K)]        0.000 [J/(mol K)]       0.00000000 [mEh/K]

  Constant volume heat capacity, Cv
    Electronic Cv           0.000 [cal/(mol K)]        0.000 [J/(mol K)]       0.00000000 [mEh/K]
    Translational Cv        2.981 [cal/(mol K)]       12.472 [J/(mol K)]       0.00475022 [mEh/K]
    Rotational Cv           1.987 [cal/(mol K)]        8.314 [J/(mol K)]       0.00316681 [mEh/K]
    Vibrational Cv          0.000 [cal/(mol K)]        0.000 [J/(mol K)]       0.00000000 [mEh/K]
  Total Cv                  4.968 [cal/(mol K)]       20.786 [J/(mol K)]       0.00791703 [mEh/K]
  Correction Cv             0.000 [cal/(mol K)]        0.000 [J/(mol K)]       0.00000000 [mEh/K]

  Constant pressure heat capacity, Cp
    Electronic Cp           0.000 [cal/(mol K)]        0.000 [J/(mol K)]       0.00000000 [mEh/K]
    Translational Cp        4.968 [cal/(mol K)]       20.786 [J/(mol K)]       0.00791703 [mEh/K]
    Rotational Cp           1.987 [cal/(mol K)]        8.314 [J/(mol K)]       0.00316681 [mEh/K]
    Vibrational Cp          0.000 [cal/(mol K)]        0.000 [J/(mol K)]       0.00000000 [mEh/K]
  Total Cp                  6.955 [cal/(mol K)]       29.101 [J/(mol K)]       0.01108384 [mEh/K]
  Correction Cp             0.000 [cal/(mol K)]        0.000 [J/(mol K)]       0.00000000 [mEh/K]

  ==> Thermochemistry Energy Analysis <==

  Raw electronic energy, E0
  Total E0, Electronic energy at well bottom at 0 [K]                   -1.17360206 [Eh]

  Zero-point energy, ZPE_vib = Sum_i nu_i / 2
    Electronic ZPE          0.000 [kcal/mol]        0.000 [kJ/mol]       0.00000000 [Eh]
    Translational ZPE       0.000 [kcal/mol]        0.000 [kJ/mol]       0.00000000 [Eh]
    Rotational ZPE          0.000 [kcal/mol]        0.000 [kJ/mol]       0.00000000 [Eh]
    Vibrational ZPE         6.248 [kcal/mol]       26.143 [kJ/mol]       0.00995730 [Eh]        2185.374 [cm^-1]
  Correction ZPE            6.248 [kcal/mol]       26.143 [kJ/mol]       0.00995730 [Eh]        2185.374 [cm^-1]
  Total ZPE, Electronic energy at 0 [K]                                 -1.16364476 [Eh]

  Thermal Energy, E (includes ZPE)
    Electronic E            0.000 [kcal/mol]        0.000 [kJ/mol]       0.00000000 [Eh]
    Translational E         0.889 [kcal/mol]        3.718 [kJ/mol]       0.00141628 [Eh]
    Rotational E            0.592 [kcal/mol]        2.479 [kJ/mol]       0.00094418 [Eh]
    Vibrational E           6.248 [kcal/mol]       26.143 [kJ/mol]       0.00995730 [Eh]
  Correction E              7.730 [kcal/mol]       32.340 [kJ/mol]       0.01231776 [Eh]
  Total E, Electronic energy at  298.15 [K]                             -1.16128430 [Eh]

  Enthalpy, H_trans = E_trans + k_B * T
    Electronic H            0.000 [kcal/mol]        0.000 [kJ/mol]       0.00000000 [Eh]
    Translational H         1.481 [kcal/mol]        6.197 [kJ/mol]       0.00236046 [Eh]
    Rotational H            0.592 [kcal/mol]        2.479 [kJ/mol]       0.00094418 [Eh]
    Vibrational H           6.248 [kcal/mol]       26.143 [kJ/mol]       0.00995730 [Eh]
  Correction H              8.322 [kcal/mol]       34.819 [kJ/mol]       0.01326194 [Eh]
  Total H, Enthalpy at  298.15 [K]                                      -1.16034011 [Eh]

  Gibbs free energy, G = H - T * S
    Electronic G            0.000 [kcal/mol]        0.000 [kJ/mol]       0.00000000 [Eh]
    Translational G        -6.891 [kcal/mol]      -28.832 [kJ/mol]      -0.01098137 [Eh]
    Rotational G           -0.347 [kcal/mol]       -1.452 [kJ/mol]      -0.00055304 [Eh]
    Vibrational G           6.248 [kcal/mol]       26.143 [kJ/mol]       0.00995730 [Eh]
  Correction G             -0.990 [kcal/mol]       -4.141 [kJ/mol]      -0.00157712 [Eh]
  Total G, Free enthalpy at  298.15 [K]                                 -1.17517917 [Eh]

*** Psi4 exiting successfully. Buy a developer a beer!
