 Gaussian 09, Revision E.01,
 Gaussian 09:  ES64L-G09RevE.01 30-Nov-2015

 -------------------------------------------------------------------
 #P b3lyp/6-31g* # SCF=(xqc) # Freq=() # IOp(7/33=1) # int=ultrafine
 -------------------------------------------------------------------

 --------
 comment:
 --------
 Symbolic Z-matrix:
 Charge =  0 Multiplicity = 1

                         Standard orientation:
 ---------------------------------------------------------------------
 Center     Atomic      Atomic             Coordinates (Angstroms)
 Number     Number       Type             X           Y           Z
 ---------------------------------------------------------------------
      1          8           0        0.000000    0.728144   -0.054354
      2          8           0       -0.000000   -0.728144   -0.054354
      3          1           0        0.825900    0.891185    0.434834
      4          1           0       -0.825900   -0.891185    0.434834
 ---------------------------------------------------------------------

 SCF Done:  E(RB3LYP) =  -151.533213445     A.U. after   10 cycles

 The electronic state is 1-A.
 Alpha  occ. eigenvalues --  -19.20279 -19.20271  -1.11048  -0.89406  -0.52258
 Alpha  occ. eigenvalues --   -0.48882  -0.41165  -0.31818  -0.26932
 Alpha virt. eigenvalues --    0.02433   0.06905   0.11579   0.77729   0.78025
 Alpha virt. eigenvalues --    0.81222   0.83895   0.92154   0.95583   0.98372
 Alpha virt. eigenvalues --    1.04487   1.18805   1.31848   1.51007   1.51418

 Mulliken charges:
               1
     1  O   -0.417448
     2  O   -0.417448
     3  H    0.417448
     4  H    0.417448
 Sum of Mulliken charges =   0.00000

 Dipole moment (field-independent basis, Debye):
    X=              0.0000    Y=              0.0000    Z=              1.7792  Tot=              1.7792
 Quadrupole moment (field-independent basis, Debye-Ang):
   XX=             -9.1584   YY=            -11.0914   ZZ=            -11.5540
   XY=              3.0120   XZ=              0.0000   YZ=              0.0000

  Exact polarizability:   9.473   2.316  13.835   0.000   0.000   6.213
 Approx polarizability:  12.032   2.057  20.637  -0.000  -0.000   7.707

                      1                      2                      3
                      A                      A                      B
 Frequencies --    348.8394               956.4773              1330.8789
 Red. masses --      1.0829                14.4006                 1.0999
 Frc consts  --      0.0776                 7.7621                 1.1479
 IR Inten    --    202.9935                 1.6469               107.7716

                      4                      5                      6
                      A                      A                      B
 Frequencies --   1470.0182              3706.2857              3708.9437
 Red. masses --      1.0892                 1.0702                 1.0676
 Frc consts  --      1.3867                 8.6617                 8.6526
 IR Inten    --      0.4406                 5.2848                30.1846

 - Thermochemistry -
 -------------------
 Temperature   298.150 Kelvin.  Pressure   1.00000 Atm.
 Atom     1 has atomic number  8 and mass  15.99491

 Molecular mass:    34.00548 amu.
 Principal axes and moments of inertia in atomic units:
                           1         2         3
     Eigenvalues --     6.07629  68.35924  71.19469
           X            0.08537   0.99635   0.00000
           Y            0.99635  -0.08537   0.00000
           Z           -0.00000   0.00000   1.00000
 This molecule is an asymmetric top.
 Rotational symmetry number  2.
 Rotational temperatures (Kelvin)     14.25438     1.26704     1.21658
 Rotational constants (GHZ):         297.01351    26.40084    25.34938
 Zero-point vibrational energy      68913.5 (Joules/Mol)
                                   16.47073 (Kcal/Mol)
 Warning -- explicit consideration of   1 degrees of freedom as
           vibrations may cause significant error
 Vibrational temperatures:    501.90  1376.16  1914.84  2115.03  5332.51
          (Kelvin)           5336.34

 Zero-point correction=                           0.026248 (Hartree/Particle)
 Thermal correction to Energy=                    0.029502
 Thermal correction to Enthalpy=                  0.030446
 Thermal correction to Gibbs Free Energy=         0.004562
 Sum of electronic and zero-point Energies=           -151.506966
 Sum of electronic and thermal Energies=              -151.503712
 Sum of electronic and thermal Enthalpies=            -151.502767
 Sum of electronic and thermal Free Energies=         -151.528651

                     E (Thermal)             CV                S
                      KCal/Mol        Cal/Mol-Kelvin    Cal/Mol-Kelvin
 Total                   18.513              8.183             54.477
 Electronic               0.000              0.000              0.000
 Translational            0.889              2.981             36.503
 Rotational               0.889              2.981             16.654
 Vibrational             16.735              2.222              1.320
 Vibration     1          0.726              1.578              1.171

 Optimization completed.
    -- Stationary point found.
 Normal termination of Gaussian 09 at Tue Sep 10 12:25:06 2019.
